TITLE = "PITCH AND HEAVE HARMONIC ANALYSIS DATA FOR MODEL 5512 WO BILGE KEELS"
VARIABLES = f, fe, lambda, Ak, wave, x, y, z, roll, pitch, yaw, visibility, Uc
ZONE T="Amp 0, Fr=0.000,  Ak=0.075", i=      6, j=  1, k=  1, F=POINT
  0.1012200E+01  0.1012800E+01  0.5003483E+00  0.7626271E-01 -0.1949077E+00  0.0000000E+00  0.0000000E+00 -0.3877001E-01  0.0000000E+00  0.8462634E-02  0.0000000E+00  0.1400001E-03  0.0000000E+00
  0.9480000E+00  0.9468000E+00  0.5704116E+00  0.8160968E-01  0.4228632E+00  0.0000000E+00  0.0000000E+00  0.6666712E-01  0.0000000E+00  0.1768765E-01  0.0000000E+00  0.1019999E-02  0.0000000E+00
  0.8494000E+00  0.8478000E+00  0.7105269E+00  0.8106099E-01  0.1154562E-01  0.0000000E+00  0.0000000E+00  0.2578675E+00  0.0000000E+00  0.3427507E-01  0.0000000E+00  0.4799999E-03  0.0000000E+00
  0.7157000E+00  0.7158000E+00  0.1000790E+01  0.9897459E-01 -0.4283815E+00  0.0000000E+00  0.0000000E+00  0.1368281E+01  0.0000000E+00  0.3361141E-01  0.0000000E+00  0.0000000E+00  0.0000000E+00
  0.6506000E+00  0.6498000E+00  0.1211091E+01  0.6974783E-01 -0.6914729E+00  0.0000000E+00  0.0000000E+00  0.1876784E+01  0.0000000E+00  0.1930645E-01  0.0000000E+00  0.9800000E-03  0.0000000E+00
  0.5844000E+00  0.5838000E+00  0.1501014E+01  0.7014007E-01 -0.1360573E+01  0.0000000E+00  0.0000000E+00  0.1574364E+01  0.0000000E+00 -0.2457116E-01  0.0000000E+00  0.0000000E+00  0.1000008E-04
ZONE T="Amp 1, Fr=0.000,  Ak=0.075", i=      6, j=  1, k=  1, F=POINT
  0.1012200E+01  0.1012800E+01  0.5003483E+00  0.7626271E-01  0.1851056E+02  0.0000000E+00  0.0000000E+00  0.6646597E+01  0.0000000E+00  0.3586173E+00  0.0000000E+00  0.1400001E-03  0.0000000E+00
  0.9480000E+00  0.9468000E+00  0.5704116E+00  0.8160968E-01  0.2258214E+02  0.0000000E+00  0.0000000E+00  0.3333236E+01  0.0000000E+00  0.3036379E+00  0.0000000E+00  0.1019999E-02  0.0000000E+00
  0.8494000E+00  0.8478000E+00  0.7105269E+00  0.8106099E-01  0.2794007E+02  0.0000000E+00  0.0000000E+00  0.5642567E+01  0.0000000E+00  0.5699072E+00  0.0000000E+00  0.4799999E-03  0.0000000E+00
  0.7157000E+00  0.7158000E+00  0.1000790E+01  0.9897459E-01  0.4805093E+02  0.0000000E+00  0.0000000E+00  0.1476990E+02  0.0000000E+00  0.2331983E+01  0.0000000E+00  0.0000000E+00  0.0000000E+00
  0.6506000E+00  0.6498000E+00  0.1211091E+01  0.6974783E-01  0.4097724E+02  0.0000000E+00  0.0000000E+00  0.1986220E+02  0.0000000E+00  0.2825182E+01  0.0000000E+00  0.9800000E-03  0.0000000E+00
  0.5844000E+00  0.5838000E+00  0.1501014E+01  0.7014007E-01  0.5107236E+02  0.0000000E+00  0.0000000E+00  0.3169457E+02  0.0000000E+00  0.3164948E+01  0.0000000E+00  0.0000000E+00  0.1000008E-04
ZONE T="Amp 2, Fr=0.000,  Ak=0.075", i=      6, j=  1, k=  1, F=POINT
  0.1012200E+01  0.1012800E+01  0.5003483E+00  0.7626271E-01  0.5731158E+00  0.0000000E+00  0.0000000E+00  0.2141909E-01  0.0000000E+00  0.2202760E-02  0.0000000E+00  0.1400001E-03  0.0000000E+00
  0.9480000E+00  0.9468000E+00  0.5704116E+00  0.8160968E-01  0.1686082E+01  0.0000000E+00  0.0000000E+00  0.2417026E+00  0.0000000E+00  0.1738157E-02  0.0000000E+00  0.1019999E-02  0.0000000E+00
  0.8494000E+00  0.8478000E+00  0.7105269E+00  0.8106099E-01  0.1318012E+01  0.0000000E+00  0.0000000E+00  0.1080413E+00  0.0000000E+00  0.8898330E-02  0.0000000E+00  0.4799999E-03  0.0000000E+00
  0.7157000E+00  0.7158000E+00  0.1000790E+01  0.9897459E-01  0.1783303E+01  0.0000000E+00  0.0000000E+00  0.4937979E+00  0.0000000E+00  0.1963608E+00  0.0000000E+00  0.0000000E+00  0.0000000E+00
  0.6506000E+00  0.6498000E+00  0.1211091E+01  0.6974783E-01  0.1171301E+01  0.0000000E+00  0.0000000E+00  0.3921980E+00  0.0000000E+00  0.9736992E-01  0.0000000E+00  0.9800000E-03  0.0000000E+00
  0.5844000E+00  0.5838000E+00  0.1501014E+01  0.7014007E-01  0.8639896E+00  0.0000000E+00  0.0000000E+00  0.1141958E+01  0.0000000E+00  0.2043117E+00  0.0000000E+00  0.0000000E+00  0.1000008E-04
ZONE T="Amp 3, Fr=0.000,  Ak=0.075", i=      6, j=  1, k=  1, F=POINT
  0.1012200E+01  0.1012800E+01  0.5003483E+00  0.7626271E-01  0.1490262E+00  0.0000000E+00  0.0000000E+00  0.3166859E-01  0.0000000E+00  0.5973238E-03  0.0000000E+00  0.1400001E-03  0.0000000E+00
  0.9480000E+00  0.9468000E+00  0.5704116E+00  0.8160968E-01  0.1571157E+00  0.0000000E+00  0.0000000E+00  0.1918889E-01  0.0000000E+00  0.1351671E-02  0.0000000E+00  0.1019999E-02  0.0000000E+00
  0.8494000E+00  0.8478000E+00  0.7105269E+00  0.8106099E-01  0.4398646E+00  0.0000000E+00  0.0000000E+00  0.3547918E-01  0.0000000E+00  0.8163023E-03  0.0000000E+00  0.4799999E-03  0.0000000E+00
  0.7157000E+00  0.7158000E+00  0.1000790E+01  0.9897459E-01  0.3756602E+00  0.0000000E+00  0.0000000E+00  0.6263175E-01  0.0000000E+00  0.7871267E-02  0.0000000E+00  0.0000000E+00  0.0000000E+00
  0.6506000E+00  0.6498000E+00  0.1211091E+01  0.6974783E-01  0.3316456E+00  0.0000000E+00  0.0000000E+00  0.8160856E-01  0.0000000E+00  0.1362997E-01  0.0000000E+00  0.9800000E-03  0.0000000E+00
  0.5844000E+00  0.5838000E+00  0.1501014E+01  0.7014007E-01  0.4781092E+00  0.0000000E+00  0.0000000E+00  0.2811096E-01  0.0000000E+00  0.2995209E-01  0.0000000E+00  0.0000000E+00  0.1000008E-04
ZONE T="Amp 4, Fr=0.000,  Ak=0.075", i=      6, j=  1, k=  1, F=POINT
  0.1012200E+01  0.1012800E+01  0.5003483E+00  0.7626271E-01  0.1660627E+00  0.0000000E+00  0.0000000E+00  0.2417758E-01  0.0000000E+00  0.5799120E-03  0.0000000E+00  0.1400001E-03  0.0000000E+00
  0.9480000E+00  0.9468000E+00  0.5704116E+00  0.8160968E-01  0.1370226E+00  0.0000000E+00  0.0000000E+00  0.8056754E-02  0.0000000E+00  0.1025714E-02  0.0000000E+00  0.1019999E-02  0.0000000E+00
  0.8494000E+00  0.8478000E+00  0.7105269E+00  0.8106099E-01  0.1633788E+00  0.0000000E+00  0.0000000E+00  0.2701384E-01  0.0000000E+00  0.1821211E-02  0.0000000E+00  0.4799999E-03  0.0000000E+00
  0.7157000E+00  0.7158000E+00  0.1000790E+01  0.9897459E-01  0.2592602E+00  0.0000000E+00  0.0000000E+00  0.5222198E-02  0.0000000E+00  0.3245243E-02  0.0000000E+00  0.0000000E+00  0.0000000E+00
  0.6506000E+00  0.6498000E+00  0.1211091E+01  0.6974783E-01  0.5593761E+00  0.0000000E+00  0.0000000E+00  0.5783194E-01  0.0000000E+00  0.4635295E-02  0.0000000E+00  0.9800000E-03  0.0000000E+00
  0.5844000E+00  0.5838000E+00  0.1501014E+01  0.7014007E-01  0.5417861E+00  0.0000000E+00  0.0000000E+00  0.4959035E-01  0.0000000E+00  0.5996004E-02  0.0000000E+00  0.0000000E+00  0.1000008E-04
ZONE T="Amp 5, Fr=0.000,  Ak=0.075", i=      6, j=  1, k=  1, F=POINT
  0.1012200E+01  0.1012800E+01  0.5003483E+00  0.7626271E-01  0.6062974E-01  0.0000000E+00  0.0000000E+00  0.1339281E-01  0.0000000E+00  0.9448438E-03  0.0000000E+00  0.1400001E-03  0.0000000E+00
  0.9480000E+00  0.9468000E+00  0.5704116E+00  0.8160968E-01  0.4809186E-01  0.0000000E+00  0.0000000E+00  0.8472980E-02  0.0000000E+00  0.7995697E-03  0.0000000E+00  0.1019999E-02  0.0000000E+00
  0.8494000E+00  0.8478000E+00  0.7105269E+00  0.8106099E-01  0.2390134E-01  0.0000000E+00  0.0000000E+00  0.2726529E-01  0.0000000E+00  0.2462652E-02  0.0000000E+00  0.4799999E-03  0.0000000E+00
  0.7157000E+00  0.7158000E+00  0.1000790E+01  0.9897459E-01  0.3351973E+00  0.0000000E+00  0.0000000E+00  0.3154373E-01  0.0000000E+00  0.2639592E-02  0.0000000E+00  0.0000000E+00  0.0000000E+00
  0.6506000E+00  0.6498000E+00  0.1211091E+01  0.6974783E-01  0.4500657E-01  0.0000000E+00  0.0000000E+00  0.2836265E-01  0.0000000E+00  0.6722273E-02  0.0000000E+00  0.9800000E-03  0.0000000E+00
  0.5844000E+00  0.5838000E+00  0.1501014E+01  0.7014007E-01  0.4639809E+00  0.0000000E+00  0.0000000E+00  0.4477237E-01  0.0000000E+00  0.7103526E-02  0.0000000E+00  0.0000000E+00  0.1000008E-04
ZONE T="Amp 6, Fr=0.000,  Ak=0.075", i=      6, j=  1, k=  1, F=POINT
  0.1012200E+01  0.1012800E+01  0.5003483E+00  0.7626271E-01  0.4133946E-01  0.0000000E+00  0.0000000E+00  0.1194579E-01  0.0000000E+00  0.7189327E-03  0.0000000E+00  0.1400001E-03  0.0000000E+00
  0.9480000E+00  0.9468000E+00  0.5704116E+00  0.8160968E-01  0.2501094E-01  0.0000000E+00  0.0000000E+00  0.6984817E-02  0.0000000E+00  0.4597737E-03  0.0000000E+00  0.1019999E-02  0.0000000E+00
  0.8494000E+00  0.8478000E+00  0.7105269E+00  0.8106099E-01  0.2352304E-01  0.0000000E+00  0.0000000E+00  0.1364139E-01  0.0000000E+00  0.7314033E-03  0.0000000E+00  0.4799999E-03  0.0000000E+00
  0.7157000E+00  0.7158000E+00  0.1000790E+01  0.9897459E-01  0.2419486E+00  0.0000000E+00  0.0000000E+00  0.1621631E-01  0.0000000E+00  0.1224631E-02  0.0000000E+00  0.0000000E+00  0.0000000E+00
  0.6506000E+00  0.6498000E+00  0.1211091E+01  0.6974783E-01  0.9423248E-01  0.0000000E+00  0.0000000E+00  0.2331145E-01  0.0000000E+00  0.5449654E-02  0.0000000E+00  0.9800000E-03  0.0000000E+00
  0.5844000E+00  0.5838000E+00  0.1501014E+01  0.7014007E-01  0.5148504E+00  0.0000000E+00  0.0000000E+00  0.7221284E-01  0.0000000E+00  0.5708387E-02  0.0000000E+00  0.0000000E+00  0.1000008E-04
ZONE T="Amp 7, Fr=0.000,  Ak=0.075", i=      6, j=  1, k=  1, F=POINT
  0.1012200E+01  0.1012800E+01  0.5003483E+00  0.7626271E-01  0.4201990E-01  0.0000000E+00  0.0000000E+00  0.1063786E-01  0.0000000E+00  0.9468265E-03  0.0000000E+00  0.1400001E-03  0.0000000E+00
  0.9480000E+00  0.9468000E+00  0.5704116E+00  0.8160968E-01  0.2443588E-01  0.0000000E+00  0.0000000E+00  0.6970075E-02  0.0000000E+00  0.4844732E-03  0.0000000E+00  0.1019999E-02  0.0000000E+00
  0.8494000E+00  0.8478000E+00  0.7105269E+00  0.8106099E-01  0.5803959E-01  0.0000000E+00  0.0000000E+00  0.2882027E-02  0.0000000E+00  0.1868889E-02  0.0000000E+00  0.4799999E-03  0.0000000E+00
  0.7157000E+00  0.7158000E+00  0.1000790E+01  0.9897459E-01  0.2450195E+00  0.0000000E+00  0.0000000E+00  0.2304130E-01  0.0000000E+00  0.3263871E-02  0.0000000E+00  0.0000000E+00  0.0000000E+00
  0.6506000E+00  0.6498000E+00  0.1211091E+01  0.6974783E-01  0.6071740E-01  0.0000000E+00  0.0000000E+00  0.4967789E-01  0.0000000E+00  0.4790096E-02  0.0000000E+00  0.9800000E-03  0.0000000E+00
  0.5844000E+00  0.5838000E+00  0.1501014E+01  0.7014007E-01  0.1758755E+00  0.0000000E+00  0.0000000E+00  0.6415262E-01  0.0000000E+00  0.6102816E-02  0.0000000E+00  0.0000000E+00  0.1000008E-04
ZONE T="Amp 8, Fr=0.000,  Ak=0.075", i=      6, j=  1, k=  1, F=POINT
  0.1012200E+01  0.1012800E+01  0.5003483E+00  0.7626271E-01  0.2870962E-01  0.0000000E+00  0.0000000E+00  0.9206480E-02  0.0000000E+00  0.7500689E-03  0.0000000E+00  0.1400001E-03  0.0000000E+00
  0.9480000E+00  0.9468000E+00  0.5704116E+00  0.8160968E-01  0.8507594E-02  0.0000000E+00  0.0000000E+00  0.7948788E-02  0.0000000E+00  0.2547007E-03  0.0000000E+00  0.1019999E-02  0.0000000E+00
  0.8494000E+00  0.8478000E+00  0.7105269E+00  0.8106099E-01  0.2870525E-01  0.0000000E+00  0.0000000E+00  0.5842390E-02  0.0000000E+00  0.1233994E-02  0.0000000E+00  0.4799999E-03  0.0000000E+00
  0.7157000E+00  0.7158000E+00  0.1000790E+01  0.9897459E-01  0.4814735E-01  0.0000000E+00  0.0000000E+00  0.3023473E-01  0.0000000E+00  0.1632323E-02  0.0000000E+00  0.0000000E+00  0.0000000E+00
  0.6506000E+00  0.6498000E+00  0.1211091E+01  0.6974783E-01  0.5903100E-01  0.0000000E+00  0.0000000E+00  0.3643481E-01  0.0000000E+00  0.5776905E-02  0.0000000E+00  0.9800000E-03  0.0000000E+00
  0.5844000E+00  0.5838000E+00  0.1501014E+01  0.7014007E-01  0.2580447E+00  0.0000000E+00  0.0000000E+00  0.5513121E-01  0.0000000E+00  0.5372373E-02  0.0000000E+00  0.0000000E+00  0.1000008E-04
ZONE T="Amp 9, Fr=0.000,  Ak=0.075", i=      6, j=  1, k=  1, F=POINT
  0.1012200E+01  0.1012800E+01  0.5003483E+00  0.7626271E-01  0.2612956E-01  0.0000000E+00  0.0000000E+00  0.5763473E-02  0.0000000E+00  0.7201949E-03  0.0000000E+00  0.1400001E-03  0.0000000E+00
  0.9480000E+00  0.9468000E+00  0.5704116E+00  0.8160968E-01  0.9060421E-02  0.0000000E+00  0.0000000E+00  0.5855767E-02  0.0000000E+00  0.3704574E-03  0.0000000E+00  0.1019999E-02  0.0000000E+00
  0.8494000E+00  0.8478000E+00  0.7105269E+00  0.8106099E-01  0.2468535E-01  0.0000000E+00  0.0000000E+00  0.1685940E-01  0.0000000E+00  0.2138388E-03  0.0000000E+00  0.4799999E-03  0.0000000E+00
  0.7157000E+00  0.7158000E+00  0.1000790E+01  0.9897459E-01  0.1387359E+00  0.0000000E+00  0.0000000E+00  0.2300391E-01  0.0000000E+00  0.7783382E-03  0.0000000E+00  0.0000000E+00  0.0000000E+00
  0.6506000E+00  0.6498000E+00  0.1211091E+01  0.6974783E-01  0.7152065E-01  0.0000000E+00  0.0000000E+00  0.2744912E-01  0.0000000E+00  0.5975902E-02  0.0000000E+00  0.9800000E-03  0.0000000E+00
  0.5844000E+00  0.5838000E+00  0.1501014E+01  0.7014007E-01  0.1412757E+00  0.0000000E+00  0.0000000E+00  0.5903224E-01  0.0000000E+00  0.5999467E-02  0.0000000E+00  0.0000000E+00  0.1000008E-04
ZONE T="Amp10, Fr=0.000,  Ak=0.075", i=      6, j=  1, k=  1, F=POINT
  0.1012200E+01  0.1012800E+01  0.5003483E+00  0.7626271E-01  0.2659633E-01  0.0000000E+00  0.0000000E+00  0.5545298E-02  0.0000000E+00  0.6786975E-03  0.0000000E+00  0.1400001E-03  0.0000000E+00
  0.9480000E+00  0.9468000E+00  0.5704116E+00  0.8160968E-01  0.1155338E-01  0.0000000E+00  0.0000000E+00  0.5249544E-02  0.0000000E+00  0.3268961E-03  0.0000000E+00  0.1019999E-02  0.0000000E+00
  0.8494000E+00  0.8478000E+00  0.7105269E+00  0.8106099E-01  0.4030225E-01  0.0000000E+00  0.0000000E+00  0.8128235E-02  0.0000000E+00  0.8635273E-03  0.0000000E+00  0.4799999E-03  0.0000000E+00
  0.7157000E+00  0.7158000E+00  0.1000790E+01  0.9897459E-01  0.8168484E-01  0.0000000E+00  0.0000000E+00  0.2048442E-01  0.0000000E+00  0.1024920E-02  0.0000000E+00  0.0000000E+00  0.0000000E+00
  0.6506000E+00  0.6498000E+00  0.1211091E+01  0.6974783E-01  0.1907433E-01  0.0000000E+00  0.0000000E+00  0.2682640E-01  0.0000000E+00  0.6631640E-02  0.0000000E+00  0.9800000E-03  0.0000000E+00
  0.5844000E+00  0.5838000E+00  0.1501014E+01  0.7014007E-01  0.1539555E+00  0.0000000E+00  0.0000000E+00  0.5985647E-01  0.0000000E+00  0.5908536E-02  0.0000000E+00  0.0000000E+00  0.1000008E-04
ZONE T="Phs 0, Fr=0.000,  Ak=0.075", i=      6, j=  1, k=  1, F=POINT
  0.1012200E+01  0.1012800E+01  0.5003483E+00  0.7626271E-01 -0.1800000E+03  0.0000000E+00  0.0000000E+00 -0.1800000E+03  0.0000000E+00  0.0000000E+00  0.0000000E+00  0.1400001E-03  0.0000000E+00
  0.9480000E+00  0.9468000E+00  0.5704116E+00  0.8160968E-01  0.0000000E+00  0.0000000E+00  0.0000000E+00  0.0000000E+00  0.0000000E+00  0.0000000E+00  0.0000000E+00  0.1019999E-02  0.0000000E+00
  0.8494000E+00  0.8478000E+00  0.7105269E+00  0.8106099E-01  0.0000000E+00  0.0000000E+00  0.0000000E+00  0.0000000E+00  0.0000000E+00  0.0000000E+00  0.0000000E+00  0.4799999E-03  0.0000000E+00
  0.7157000E+00  0.7158000E+00  0.1000790E+01  0.9897459E-01 -0.1800000E+03  0.0000000E+00  0.0000000E+00  0.0000000E+00  0.0000000E+00  0.0000000E+00  0.0000000E+00  0.0000000E+00  0.0000000E+00
  0.6506000E+00  0.6498000E+00  0.1211091E+01  0.6974783E-01 -0.1800000E+03  0.0000000E+00  0.0000000E+00  0.0000000E+00  0.0000000E+00  0.0000000E+00  0.0000000E+00  0.9800000E-03  0.0000000E+00
  0.5844000E+00  0.5838000E+00  0.1501014E+01  0.7014007E-01 -0.1800000E+03  0.0000000E+00  0.0000000E+00  0.0000000E+00  0.0000000E+00 -0.1800000E+03  0.0000000E+00  0.0000000E+00  0.1000008E-04
ZONE T="Phs 1, Fr=0.000,  Ak=0.075", i=      6, j=  1, k=  1, F=POINT
  0.1012200E+01  0.1012800E+01  0.5003483E+00  0.7626271E-01  0.0000000E+00  0.0000000E+00  0.0000000E+00  0.4503965E+02  0.0000000E+00  0.3640300E+01  0.0000000E+00  0.1400001E-03  0.0000000E+00
  0.9480000E+00  0.9468000E+00  0.5704116E+00  0.8160968E-01  0.0000000E+00  0.0000000E+00  0.0000000E+00  0.1557852E+03  0.0000000E+00 -0.5036785E+02  0.0000000E+00  0.1019999E-02  0.0000000E+00
  0.8494000E+00  0.8478000E+00  0.7105269E+00  0.8106099E-01  0.0000000E+00  0.0000000E+00  0.0000000E+00  0.1030698E+03  0.0000000E+00 -0.7269395E+02  0.0000000E+00  0.4799999E-03  0.0000000E+00
  0.7157000E+00  0.7158000E+00  0.1000790E+01  0.9897459E-01  0.0000000E+00  0.0000000E+00  0.0000000E+00  0.3315863E+02  0.0000000E+00 -0.1148127E+03  0.0000000E+00  0.0000000E+00  0.0000000E+00
  0.6506000E+00  0.6498000E+00  0.1211091E+01  0.6974783E-01  0.0000000E+00  0.0000000E+00  0.0000000E+00  0.1501028E+02  0.0000000E+00 -0.1065286E+03  0.0000000E+00  0.9800000E-03  0.0000000E+00
  0.5844000E+00  0.5838000E+00  0.1501014E+01  0.7014007E-01  0.0000000E+00  0.0000000E+00  0.0000000E+00  0.1075411E+02  0.0000000E+00 -0.1002398E+03  0.0000000E+00  0.0000000E+00  0.1000008E-04
ZONE T="Phs 2, Fr=0.000,  Ak=0.075", i=      6, j=  1, k=  1, F=POINT
  0.1012200E+01  0.1012800E+01  0.5003483E+00  0.7626271E-01  0.8186469E+02  0.0000000E+00  0.0000000E+00  0.1482488E+03  0.0000000E+00  0.1681429E+01  0.0000000E+00  0.1400001E-03  0.0000000E+00
  0.9480000E+00  0.9468000E+00  0.5704116E+00  0.8160968E-01 -0.1617409E+03  0.0000000E+00  0.0000000E+00  0.1365305E+03  0.0000000E+00 -0.1082766E+03  0.0000000E+00  0.1019999E-02  0.0000000E+00
  0.8494000E+00  0.8478000E+00  0.7105269E+00  0.8106099E-01  0.8343108E+02  0.0000000E+00  0.0000000E+00  0.1300326E+03  0.0000000E+00  0.1158431E+03  0.0000000E+00  0.4799999E-03  0.0000000E+00
  0.7157000E+00  0.7158000E+00  0.1000790E+01  0.9897459E-01  0.3577098E+02  0.0000000E+00  0.0000000E+00  0.6095599E+02  0.0000000E+00 -0.9186854E+02  0.0000000E+00  0.0000000E+00  0.0000000E+00
  0.6506000E+00  0.6498000E+00  0.1211091E+01  0.6974783E-01  0.6592806E+02  0.0000000E+00  0.0000000E+00 -0.1515956E+03  0.0000000E+00  0.1745133E+03  0.0000000E+00  0.9800000E-03  0.0000000E+00
  0.5844000E+00  0.5838000E+00  0.1501014E+01  0.7014007E-01  0.8980824E+01  0.0000000E+00  0.0000000E+00 -0.1215645E+03  0.0000000E+00 -0.6901889E+02  0.0000000E+00  0.0000000E+00  0.1000008E-04
ZONE T="Phs 3, Fr=0.000,  Ak=0.075", i=      6, j=  1, k=  1, F=POINT
  0.1012200E+01  0.1012800E+01  0.5003483E+00  0.7626271E-01 -0.9892030E+02  0.0000000E+00  0.0000000E+00 -0.1192582E+03  0.0000000E+00 -0.6612928E+02  0.0000000E+00  0.1400001E-03  0.0000000E+00
  0.9480000E+00  0.9468000E+00  0.5704116E+00  0.8160968E-01  0.8085358E+02  0.0000000E+00  0.0000000E+00  0.1107528E+03  0.0000000E+00 -0.1507181E+03  0.0000000E+00  0.1019999E-02  0.0000000E+00
  0.8494000E+00  0.8478000E+00  0.7105269E+00  0.8106099E-01 -0.3717158E+02  0.0000000E+00  0.0000000E+00 -0.1280671E+03  0.0000000E+00  0.1710868E+03  0.0000000E+00  0.4799999E-03  0.0000000E+00
  0.7157000E+00  0.7158000E+00  0.1000790E+01  0.9897459E-01  0.8417728E+02  0.0000000E+00  0.0000000E+00 -0.1022064E+02  0.0000000E+00  0.1119139E+03  0.0000000E+00  0.0000000E+00  0.0000000E+00
  0.6506000E+00  0.6498000E+00  0.1211091E+01  0.6974783E-01  0.7119043E+02  0.0000000E+00  0.0000000E+00  0.4498206E+01  0.0000000E+00  0.4970100E+02  0.0000000E+00  0.9800000E-03  0.0000000E+00
  0.5844000E+00  0.5838000E+00  0.1501014E+01  0.7014007E-01  0.1608631E+03  0.0000000E+00  0.0000000E+00  0.1376478E+03  0.0000000E+00 -0.9368286E+02  0.0000000E+00  0.0000000E+00  0.1000008E-04
ZONE T="Phs 4, Fr=0.000,  Ak=0.075", i=      6, j=  1, k=  1, F=POINT
  0.1012200E+01  0.1012800E+01  0.5003483E+00  0.7626271E-01 -0.1715940E+03  0.0000000E+00  0.0000000E+00 -0.1191616E+03  0.0000000E+00  0.1690646E+02  0.0000000E+00  0.1400001E-03  0.0000000E+00
  0.9480000E+00  0.9468000E+00  0.5704116E+00  0.8160968E-01  0.1186520E+03  0.0000000E+00  0.0000000E+00  0.5968029E+02  0.0000000E+00  0.1631642E+03  0.0000000E+00  0.1019999E-02  0.0000000E+00
  0.8494000E+00  0.8478000E+00  0.7105269E+00  0.8106099E-01  0.1761014E+03  0.0000000E+00  0.0000000E+00 -0.1178005E+03  0.0000000E+00  0.1124659E+03  0.0000000E+00  0.4799999E-03  0.0000000E+00
  0.7157000E+00  0.7158000E+00  0.1000790E+01  0.9897459E-01 -0.1116770E+03  0.0000000E+00  0.0000000E+00  0.8449308E+02  0.0000000E+00 -0.1229239E+03  0.0000000E+00  0.0000000E+00  0.0000000E+00
  0.6506000E+00  0.6498000E+00  0.1211091E+01  0.6974783E-01  0.1397758E+03  0.0000000E+00  0.0000000E+00 -0.2469997E+02  0.0000000E+00  0.1239994E+01  0.0000000E+00  0.9800000E-03  0.0000000E+00
  0.5844000E+00  0.5838000E+00  0.1501014E+01  0.7014007E-01 -0.9522094E+02  0.0000000E+00  0.0000000E+00 -0.1194369E+03  0.0000000E+00  0.1396109E+03  0.0000000E+00  0.0000000E+00  0.1000008E-04
ZONE T="Phs 5, Fr=0.000,  Ak=0.075", i=      6, j=  1, k=  1, F=POINT
  0.1012200E+01  0.1012800E+01  0.5003483E+00  0.7626271E-01  0.7759928E+02  0.0000000E+00  0.0000000E+00 -0.1491368E+03  0.0000000E+00 -0.9827853E+01  0.0000000E+00  0.1400001E-03  0.0000000E+00
  0.9480000E+00  0.9468000E+00  0.5704116E+00  0.8160968E-01  0.1174192E+02  0.0000000E+00  0.0000000E+00 -0.1738493E+03  0.0000000E+00  0.1062801E+03  0.0000000E+00  0.1019999E-02  0.0000000E+00
  0.8494000E+00  0.8478000E+00  0.7105269E+00  0.8106099E-01 -0.3176268E+02  0.0000000E+00  0.0000000E+00  0.7054875E+02  0.0000000E+00 -0.1294329E+03  0.0000000E+00  0.4799999E-03  0.0000000E+00
  0.7157000E+00  0.7158000E+00  0.1000790E+01  0.9897459E-01  0.1144656E+03  0.0000000E+00  0.0000000E+00  0.1407934E+03  0.0000000E+00 -0.6390549E+02  0.0000000E+00  0.0000000E+00  0.0000000E+00
  0.6506000E+00  0.6498000E+00  0.1211091E+01  0.6974783E-01 -0.8526124E+02  0.0000000E+00  0.0000000E+00  0.1074363E+02  0.0000000E+00 -0.1419668E+02  0.0000000E+00  0.9800000E-03  0.0000000E+00
  0.5844000E+00  0.5838000E+00  0.1501014E+01  0.7014007E-01 -0.1163806E+03  0.0000000E+00  0.0000000E+00 -0.1775788E+03  0.0000000E+00 -0.1792616E+03  0.0000000E+00  0.0000000E+00  0.1000008E-04
ZONE T="Phs 6, Fr=0.000,  Ak=0.075", i=      6, j=  1, k=  1, F=POINT
  0.1012200E+01  0.1012800E+01  0.5003483E+00  0.7626271E-01 -0.1491080E+03  0.0000000E+00  0.0000000E+00 -0.1403325E+03  0.0000000E+00 -0.3037457E+02  0.0000000E+00  0.1400001E-03  0.0000000E+00
  0.9480000E+00  0.9468000E+00  0.5704116E+00  0.8160968E-01  0.1208259E+02  0.0000000E+00  0.0000000E+00  0.1403559E+03  0.0000000E+00  0.1397289E+03  0.0000000E+00  0.1019999E-02  0.0000000E+00
  0.8494000E+00  0.8478000E+00  0.7105269E+00  0.8106099E-01  0.4971799E+01  0.0000000E+00  0.0000000E+00 -0.1637103E+03  0.0000000E+00  0.7897742E+02  0.0000000E+00  0.4799999E-03  0.0000000E+00
  0.7157000E+00  0.7158000E+00  0.1000790E+01  0.9897459E-01 -0.8326530E+02  0.0000000E+00  0.0000000E+00 -0.1287061E+03  0.0000000E+00 -0.1442272E+03  0.0000000E+00  0.0000000E+00  0.0000000E+00
  0.6506000E+00  0.6498000E+00  0.1211091E+01  0.6974783E-01  0.1571096E+03  0.0000000E+00  0.0000000E+00 -0.4968576E+02  0.0000000E+00  0.5434587E+01  0.0000000E+00  0.9800000E-03  0.0000000E+00
  0.5844000E+00  0.5838000E+00  0.1501014E+01  0.7014007E-01 -0.9257748E+02  0.0000000E+00  0.0000000E+00  0.1769950E+03  0.0000000E+00 -0.1547200E+03  0.0000000E+00  0.0000000E+00  0.1000008E-04
ZONE T="Phs 7, Fr=0.000,  Ak=0.075", i=      6, j=  1, k=  1, F=POINT
  0.1012200E+01  0.1012800E+01  0.5003483E+00  0.7626271E-01  0.1669939E+03  0.0000000E+00  0.0000000E+00 -0.1425549E+03  0.0000000E+00 -0.1375277E+02  0.0000000E+00  0.1400001E-03  0.0000000E+00
  0.9480000E+00  0.9468000E+00  0.5704116E+00  0.8160968E-01  0.4669202E+02  0.0000000E+00  0.0000000E+00  0.1205122E+03  0.0000000E+00 -0.1651284E+03  0.0000000E+00  0.1019999E-02  0.0000000E+00
  0.8494000E+00  0.8478000E+00  0.7105269E+00  0.8106099E-01 -0.1729041E+03  0.0000000E+00  0.0000000E+00 -0.5239090E+01  0.0000000E+00 -0.1700116E+03  0.0000000E+00  0.4799999E-03  0.0000000E+00
  0.7157000E+00  0.7158000E+00  0.1000790E+01  0.9897459E-01  0.1495345E+03  0.0000000E+00  0.0000000E+00  0.1222102E+03  0.0000000E+00 -0.1135520E+03  0.0000000E+00  0.0000000E+00  0.0000000E+00
  0.6506000E+00  0.6498000E+00  0.1211091E+01  0.6974783E-01 -0.1730567E+03  0.0000000E+00  0.0000000E+00  0.5894160E+01  0.0000000E+00 -0.9031847E+01  0.0000000E+00  0.9800000E-03  0.0000000E+00
  0.5844000E+00  0.5838000E+00  0.1501014E+01  0.7014007E-01 -0.8522432E+02  0.0000000E+00  0.0000000E+00 -0.1670816E+03  0.0000000E+00  0.1645076E+03  0.0000000E+00  0.0000000E+00  0.1000008E-04
ZONE T="Phs 8, Fr=0.000,  Ak=0.075", i=      6, j=  1, k=  1, F=POINT
  0.1012200E+01  0.1012800E+01  0.5003483E+00  0.7626271E-01  0.1674021E+03  0.0000000E+00  0.0000000E+00 -0.1488228E+03  0.0000000E+00 -0.1915531E+02  0.0000000E+00  0.1400001E-03  0.0000000E+00
  0.9480000E+00  0.9468000E+00  0.5704116E+00  0.8160968E-01  0.2475396E+02  0.0000000E+00  0.0000000E+00  0.1522725E+03  0.0000000E+00  0.1330861E+03  0.0000000E+00  0.1019999E-02  0.0000000E+00
  0.8494000E+00  0.8478000E+00  0.7105269E+00  0.8106099E-01 -0.1757695E+03  0.0000000E+00  0.0000000E+00 -0.1566493E+03  0.0000000E+00  0.1729808E+03  0.0000000E+00  0.4799999E-03  0.0000000E+00
  0.7157000E+00  0.7158000E+00  0.1000790E+01  0.9897459E-01 -0.1001723E+03  0.0000000E+00  0.0000000E+00  0.1646700E+03  0.0000000E+00 -0.1076617E+03  0.0000000E+00  0.0000000E+00  0.0000000E+00
  0.6506000E+00  0.6498000E+00  0.1211091E+01  0.6974783E-01 -0.1572606E+03  0.0000000E+00  0.0000000E+00 -0.3160878E+01  0.0000000E+00 -0.9264756E+01  0.0000000E+00  0.9800000E-03  0.0000000E+00
  0.5844000E+00  0.5838000E+00  0.1501014E+01  0.7014007E-01 -0.7554652E+02  0.0000000E+00  0.0000000E+00  0.1573853E+03  0.0000000E+00 -0.1788764E+03  0.0000000E+00  0.0000000E+00  0.1000008E-04
ZONE T="Phs 9, Fr=0.000,  Ak=0.075", i=      6, j=  1, k=  1, F=POINT
  0.1012200E+01  0.1012800E+01  0.5003483E+00  0.7626271E-01  0.1560118E+03  0.0000000E+00  0.0000000E+00 -0.1492225E+03  0.0000000E+00 -0.2762366E+02  0.0000000E+00  0.1400001E-03  0.0000000E+00
  0.9480000E+00  0.9468000E+00  0.5704116E+00  0.8160968E-01 -0.7633859E+01  0.0000000E+00  0.0000000E+00  0.1458028E+03  0.0000000E+00  0.1498379E+03  0.0000000E+00  0.1019999E-02  0.0000000E+00
  0.8494000E+00  0.8478000E+00  0.7105269E+00  0.8106099E-01 -0.1700690E+03  0.0000000E+00  0.0000000E+00  0.1709127E+03  0.0000000E+00 -0.1336824E+03  0.0000000E+00  0.4799999E-03  0.0000000E+00
  0.7157000E+00  0.7158000E+00  0.1000790E+01  0.9897459E-01  0.1650549E+03  0.0000000E+00  0.0000000E+00  0.1660904E+03  0.0000000E+00  0.1679603E+03  0.0000000E+00  0.0000000E+00  0.0000000E+00
  0.6506000E+00  0.6498000E+00  0.1211091E+01  0.6974783E-01  0.1377021E+03  0.0000000E+00  0.0000000E+00 -0.1507941E+00  0.0000000E+00 -0.8743334E+01  0.0000000E+00  0.9800000E-03  0.0000000E+00
  0.5844000E+00  0.5838000E+00  0.1501014E+01  0.7014007E-01 -0.4982666E+02  0.0000000E+00  0.0000000E+00  0.1637459E+03  0.0000000E+00  0.1767167E+03  0.0000000E+00  0.0000000E+00  0.1000008E-04
ZONE T="Phs10, Fr=0.000,  Ak=0.075", i=      6, j=  1, k=  1, F=POINT
  0.1012200E+01  0.1012800E+01  0.5003483E+00  0.7626271E-01  0.1529732E+03  0.0000000E+00  0.0000000E+00 -0.1608559E+03  0.0000000E+00 -0.2744451E+02  0.0000000E+00  0.1400001E-03  0.0000000E+00
  0.9480000E+00  0.9468000E+00  0.5704116E+00  0.8160968E-01  0.1850624E+01  0.0000000E+00  0.0000000E+00  0.1569693E+03  0.0000000E+00  0.1553408E+03  0.0000000E+00  0.1019999E-02  0.0000000E+00
  0.8494000E+00  0.8478000E+00  0.7105269E+00  0.8106099E-01  0.1729573E+03  0.0000000E+00  0.0000000E+00 -0.1740385E+03  0.0000000E+00  0.1738063E+03  0.0000000E+00  0.4799999E-03  0.0000000E+00
  0.7157000E+00  0.7158000E+00  0.1000790E+01  0.9897459E-01  0.1546302E+03  0.0000000E+00  0.0000000E+00 -0.1793903E+03  0.0000000E+00  0.1740961E+03  0.0000000E+00  0.0000000E+00  0.0000000E+00
  0.6506000E+00  0.6498000E+00  0.1211091E+01  0.6974783E-01 -0.1480216E+03  0.0000000E+00  0.0000000E+00  0.1649885E+02  0.0000000E+00 -0.2068734E+02  0.0000000E+00  0.9800000E-03  0.0000000E+00
  0.5844000E+00  0.5838000E+00  0.1501014E+01  0.7014007E-01 -0.2933264E+02  0.0000000E+00  0.0000000E+00  0.1748134E+03  0.0000000E+00  0.1636977E+03  0.0000000E+00  0.0000000E+00  0.1000008E-04
ZONE T="Amp 0 [ND], Fr=0.000,  Ak=0.075", i=      6, j=  1, k=  1, F=POINT
  0.1012200E+01  0.1012800E+01  0.5003483E+00  0.7626271E-01 -0.1949077E+00  0.0000000E+00  0.0000000E+00 -0.2094480E-02  0.0000000E+00  0.1936737E-02  0.0000000E+00  0.1400001E-03  0.0000000E+00
  0.9480000E+00  0.9468000E+00  0.5704116E+00  0.8160968E-01  0.4228632E+00  0.0000000E+00  0.0000000E+00  0.2952205E-02  0.0000000E+00  0.3782734E-02  0.0000000E+00  0.1019999E-02  0.0000000E+00
  0.8494000E+00  0.8478000E+00  0.7105269E+00  0.8106099E-01  0.1154562E-01  0.0000000E+00  0.0000000E+00  0.9229308E-02  0.0000000E+00  0.7379786E-02  0.0000000E+00  0.4799999E-03  0.0000000E+00
  0.7157000E+00  0.7158000E+00  0.1000790E+01  0.9897459E-01 -0.4283815E+00  0.0000000E+00  0.0000000E+00  0.2847564E-01  0.0000000E+00  0.5927074E-02  0.0000000E+00  0.0000000E+00  0.0000000E+00
  0.6506000E+00  0.6498000E+00  0.1211091E+01  0.6974783E-01 -0.6914729E+00  0.0000000E+00  0.0000000E+00  0.4580066E-01  0.0000000E+00  0.4831133E-02  0.0000000E+00  0.9800000E-03  0.0000000E+00
  0.5844000E+00  0.5838000E+00  0.1501014E+01  0.7014007E-01 -0.1360573E+01  0.0000000E+00  0.0000000E+00  0.3082614E-01  0.0000000E+00 -0.6114159E-02  0.0000000E+00  0.0000000E+00  0.1000008E-04
ZONE T="Amp 1 [ND], Fr=0.000,  Ak=0.075", i=      6, j=  1, k=  1, F=POINT
  0.1012200E+01  0.1012800E+01  0.5003483E+00  0.7626271E-01  0.1851056E+02  0.0000000E+00  0.0000000E+00  0.3590705E+00  0.0000000E+00  0.8207226E-01  0.0000000E+00  0.1400001E-03  0.0000000E+00
  0.9480000E+00  0.9468000E+00  0.5704116E+00  0.8160968E-01  0.2258214E+02  0.0000000E+00  0.0000000E+00  0.1476049E+00  0.0000000E+00  0.6493691E-01  0.0000000E+00  0.1019999E-02  0.0000000E+00
  0.8494000E+00  0.8478000E+00  0.7105269E+00  0.8106099E-01  0.2794007E+02  0.0000000E+00  0.0000000E+00  0.2019525E+00  0.0000000E+00  0.1227071E+00  0.0000000E+00  0.4799999E-03  0.0000000E+00
  0.7157000E+00  0.7158000E+00  0.1000790E+01  0.9897459E-01  0.4805093E+02  0.0000000E+00  0.0000000E+00  0.3073801E+00  0.0000000E+00  0.4112245E+00  0.0000000E+00  0.0000000E+00  0.0000000E+00