TITLE = "PITCH AND HEAVE TRANSFER FUNCTION DATA FOR MODEL 5512 WO BILGE KEELS"
VARIABLES = f, fe, xa, xph, ya, yph, za, zph, rolla, rollph, pitcha, pitchph, yawa, yawph, U_f_e, U_TF_x5, U_gamma_x5, U_TF_x3, U_gamma_x3
ZONE T="Fr=0.190,  Ak=0.075", i=    6, j=  1, k=  1, F=POINT
  0.1012200E+01  0.1690400E+01  0.0000000E+00  0.0000000E+00  0.0000000E+00  0.0000000E+00  0.9834960E-01  0.4532256E+02  0.0000000E+00  0.0000000E+00  0.3252516E-01 -0.7271964E+02  0.0000000E+00  0.0000000E+00  0.0000000E+00  0.0000000E+00  0.0000000E+00  0.0000000E+00  0.0000000E+00
  0.9240000E+00  0.1488000E+01  0.0000000E+00  0.0000000E+00  0.0000000E+00  0.0000000E+00  0.1723117E+00  0.3412932E+02  0.0000000E+00  0.0000000E+00  0.2820278E-01 -0.1392585E+03  0.0000000E+00  0.0000000E+00  0.0000000E+00  0.0000000E+00  0.0000000E+00  0.0000000E+00  0.0000000E+00
  0.8810000E+00  0.1395600E+01  0.0000000E+00  0.0000000E+00  0.0000000E+00  0.0000000E+00  0.1926882E+00  0.2283832E+02  0.0000000E+00  0.0000000E+00  0.6889401E-01 -0.1778668E+03  0.0000000E+00  0.0000000E+00  0.0000000E+00  0.0000000E+00  0.0000000E+00  0.0000000E+00  0.0000000E+00
  0.8320000E+00  0.1290000E+01  0.0000000E+00  0.0000000E+00  0.0000000E+00  0.0000000E+00  0.2603353E+00  0.2770618E+01  0.0000000E+00  0.0000000E+00  0.1782273E+00 -0.1800647E+03  0.0000000E+00  0.0000000E+00  0.0000000E+00  0.0000000E+00  0.0000000E+00  0.0000000E+00  0.0000000E+00
  0.7809000E+00  0.1186600E+01  0.0000000E+00  0.0000000E+00  0.0000000E+00  0.0000000E+00  0.4090690E+00 -0.3405259E+01  0.0000000E+00  0.0000000E+00  0.3372600E+00 -0.1690148E+03  0.0000000E+00  0.0000000E+00  0.0000000E+00  0.0000000E+00  0.0000000E+00  0.0000000E+00  0.0000000E+00
  0.7157000E+00  0.1056800E+01  0.0000000E+00  0.0000000E+00  0.0000000E+00  0.0000000E+00  0.5936186E+00 -0.9301146E+00  0.0000000E+00  0.0000000E+00  0.5998950E+00 -0.1505608E+03  0.0000000E+00  0.0000000E+00  0.0000000E+00  0.0000000E+00  0.0000000E+00  0.0000000E+00  0.0000000E+00
