TITLE = "PITCH AND HEAVE SPECTRUM DATA FOR MODEL 5512 WO BILGE KEELS"
VARIABLES = fre_w, amp_w, pow_w, fre_x, amp_x, pow_x, fre_y, amp_y, pow_y, fre_z, amp_z, pow_z, fre_roll, amp_roll, pow_roll, fre_pitch, amp_pitch, pow_pitch, fre_yaw, amp_yaw, pow_yaw
ZONE T="sdak1_01, Fr=0.340,  Ak=0.025", i=  512, j=  1, k=  1, F=POINT
  0.0000000E+00  0.1546235E+01  0.1195421E+01  0.0000000E+00  0.3446825E+01  0.5940300E+01  0.0000000E+00  0.3363090E+00  0.5655188E-01  0.0000000E+00  0.1810075E+02  0.1638185E+03  0.0000000E+00  0.2109383E-01  0.2224748E-03  0.0000000E+00  0.1825100E+00  0.1665496E-01  0.0000000E+00  0.3858200E-01  0.7442856E-03
  0.1041667E+00  0.1055064E+01  0.5565799E+00  0.1041667E+00  0.4416440E-01  0.9752472E-03  0.1041667E+00  0.8641429E-01  0.3733714E-02  0.1041667E+00  0.5503975E+00  0.1514687E+00  0.1041667E+00  0.6642813E-02  0.2206348E-04  0.1041667E+00  0.3529039E-01  0.6227058E-03  0.1041667E+00  0.3734514E-02  0.6973296E-05
  0.2083333E+00  0.4250890E+00  0.9035034E-01  0.2083333E+00  0.1631530E+00  0.1330945E-01  0.2083333E+00  0.1174797E+00  0.6900738E-02  0.2083333E+00  0.5915086E+00  0.1749412E+00  0.2083333E+00  0.5852174E-02  0.1712397E-04  0.2083333E+00  0.4004951E-01  0.8019817E-03  0.2083333E+00  0.4187209E-02  0.8766360E-05
  0.3125000E+00  0.9838432E-01  0.4839737E-02  0.3125000E+00  0.7632812E-01  0.2912991E-02  0.3125000E+00  0.5030035E-01  0.1265063E-02  0.3125000E+00  0.3406628E+00  0.5802558E-01  0.3125000E+00  0.6186738E-02  0.1913786E-04  0.3125000E+00  0.1697925E-01  0.1441475E-03  0.3125000E+00  0.7833773E-03  0.3068400E-06
  0.4166667E+00  0.2179654E-01  0.2375445E-03  0.4166667E+00  0.8096085E-01  0.3277330E-02  0.4166667E+00  0.6894922E-01  0.2376997E-02  0.4166667E+00  0.3293842E+00  0.5424699E-01  0.4166667E+00  0.2783711E-02  0.3874523E-05  0.4166667E+00  0.1750176E-01  0.1531559E-03  0.4166667E+00  0.5482243E-02  0.1502749E-04
  0.5208334E+00  0.3334505E+00  0.5559462E-01  0.5208334E+00  0.1120143E+00  0.6273601E-02  0.5208334E+00  0.4239502E-01  0.8986688E-03  0.5208334E+00  0.4701761E+00  0.1105328E+00  0.5208334E+00  0.2973205E-02  0.4419974E-05  0.5208334E+00  0.6066268E-02  0.1839980E-04  0.5208334E+00  0.1846139E-02  0.1704114E-05
  0.6250001E+00  0.1637353E+00  0.1340463E-01  0.6250001E+00  0.9295318E-01  0.4320147E-02  0.6250001E+00  0.2733212E-01  0.3735225E-03  0.6250001E+00  0.4469684E+00  0.9989040E-01  0.6250001E+00  0.4624169E-03  0.1069147E-06  0.6250001E+00  0.2457363E-01  0.3019317E-03  0.6250001E+00  0.2174366E-02  0.2363933E-05
  0.7291667E+00  0.3354095E+00  0.5624976E-01  0.7291667E+00  0.6521703E-01  0.2126631E-02  0.7291667E+00  0.1703734E-01  0.1451354E-03  0.7291667E+00  0.3480660E+00  0.6057496E-01  0.7291667E+00  0.1421837E-02  0.1010810E-05  0.7291667E+00  0.2597358E-01  0.3373135E-03  0.7291667E+00  0.1453166E-02  0.1055845E-05
  0.8333334E+00  0.5391099E+00  0.1453197E+00  0.8333334E+00  0.1368602E+00  0.9365354E-02  0.8333334E+00  0.5628102E-01  0.1583777E-02  0.8333334E+00  0.7320132E+00  0.2679216E+00  0.8333334E+00  0.2088795E-02  0.2181532E-05  0.8333334E+00  0.3153338E-01  0.4971771E-03  0.8333334E+00  0.4922642E-02  0.1211620E-04
  0.9375001E+00  0.5727337E+00  0.1640119E+00  0.9375001E+00  0.1582641E+00  0.1252376E-01  0.9375001E+00  0.4832089E-01  0.1167454E-02  0.9375001E+00  0.8309365E+00  0.3452277E+00  0.9375001E+00  0.3166090E-02  0.5012063E-05  0.9375001E+00  0.5466057E-01  0.1493889E-02  0.9375001E+00  0.2370500E-02  0.2809635E-05
  0.1041667E+01  0.1009196E+01  0.5092383E+00  0.1041667E+01  0.1260119E+00  0.7939497E-02  0.1041667E+01  0.1324757E-01  0.8774899E-04  0.1041667E+01  0.5954729E+00  0.1772940E+00  0.1041667E+01  0.1860130E-02  0.1730042E-05  0.1041667E+01  0.4158942E-01  0.8648399E-03  0.1041667E+01  0.3806036E-02  0.7242955E-05
  0.1145833E+01  0.1054738E+01  0.5562364E+00  0.1145833E+01  0.1726861E+00  0.1491024E-01  0.1145833E+01  0.9875371E-01  0.4876147E-02  0.1145833E+01  0.7852593E+00  0.3083161E+00  0.1145833E+01  0.3628088E-02  0.6581511E-05  0.1145833E+01  0.7307350E-01  0.2669868E-02  0.1145833E+01  0.7893656E-02  0.3115490E-04
  0.1250000E+01  0.2273848E+01  0.2585191E+01  0.1250000E+01  0.1978029E+00  0.1956299E-01  0.1250000E+01  0.9570243E-01  0.4579477E-02  0.1250000E+01  0.1098214E+01  0.6030373E+00  0.1250000E+01  0.4771678E-02  0.1138446E-04  0.1250000E+01  0.1024197E+00  0.5244902E-02  0.1250000E+01  0.1143939E-01  0.6542986E-04
  0.1354167E+01  0.9281271E+01  0.4307100E+02  0.1354167E+01  0.9339247E+00  0.4361076E+00  0.1354167E+01  0.4274194E+00  0.9134366E-01  0.1354167E+01  0.4744298E+01  0.1125418E+02  0.1354167E+01  0.1817082E-01  0.1650894E-03  0.1354167E+01  0.4442811E+00  0.9869283E-01  0.1354167E+01  0.3012054E-01  0.4536234E-03
  0.1458333E+01  0.4505564E+01  0.1015005E+02  0.1458333E+01  0.4227396E+00  0.8935437E-01  0.1458333E+01  0.2006295E+00  0.2012610E-01  0.1458333E+01  0.2129520E+01  0.2267428E+01  0.1458333E+01  0.8259274E-02  0.3410780E-04  0.1458333E+01  0.1939265E+00  0.1880375E-01  0.1458333E+01  0.1607605E-01  0.1292196E-03
  0.1562500E+01  0.1970125E+01  0.1940696E+01  0.1562500E+01  0.1673052E+00  0.1399552E-01  0.1562500E+01  0.9021673E-01  0.4069529E-02  0.1562500E+01  0.8755085E+00  0.3832575E+00  0.1562500E+01  0.5939416E-02  0.1763833E-04  0.1562500E+01  0.8369926E-01  0.3502783E-02  0.1562500E+01  0.1439232E-01  0.1035695E-03
  0.1666667E+01  0.1248762E+01  0.7797037E+00  0.1666667E+01  0.1058542E+00  0.5602554E-02  0.1666667E+01  0.7012117E-01  0.2458489E-02  0.1666667E+01  0.5150881E+00  0.1326579E+00  0.1666667E+01  0.3834923E-02  0.7353317E-05  0.1666667E+01  0.4935409E-01  0.1217913E-02  0.1666667E+01  0.4360999E-02  0.9509157E-05
  0.1770833E+01  0.9362988E+00  0.4383278E+00  0.1770833E+01  0.8621711E-01  0.3716695E-02  0.1770833E+01  0.7705759E-01  0.2968936E-02  0.1770833E+01  0.3806954E+00  0.7246448E-01  0.1770833E+01  0.4557690E-02  0.1038627E-04  0.1770833E+01  0.3559074E-01  0.6333503E-03  0.1770833E+01  0.5679111E-02  0.1612615E-04
  0.1875000E+01  0.7927666E+00  0.3142394E+00  0.1875000E+01  0.6682417E-01  0.2232735E-02  0.1875000E+01  0.5926849E-01  0.1756377E-02  0.1875000E+01  0.2861414E+00  0.4093846E-01  0.1875000E+01  0.2339650E-02  0.2736982E-05  0.1875000E+01  0.2983845E-01  0.4451666E-03  0.1875000E+01  0.6632805E-02  0.2199705E-04
  0.1979167E+01  0.6308027E+00  0.1989560E+00  0.1979167E+01  0.2348290E-01  0.2757233E-03  0.1979167E+01  0.3735007E-01  0.6975138E-03  0.1979167E+01  0.2030572E+00  0.2061612E-01  0.1979167E+01  0.2897823E-02  0.4198690E-05  0.1979167E+01  0.2472949E-01  0.3057739E-03  0.1979167E+01  0.2617420E-02  0.3425443E-05
  0.2083333E+01  0.5619540E+00  0.1578962E+00  0.2083333E+01  0.3296807E-01  0.5434470E-03  0.2083333E+01  0.1916309E-01  0.1836119E-03  0.2083333E+01  0.1956738E+00  0.1914412E-01  0.2083333E+01  0.3534463E-02  0.6246213E-05  0.2083333E+01  0.1920128E-01  0.1843447E-03  0.2083333E+01  0.1600963E-02  0.1281542E-05
  0.2187500E+01  0.5076704E+00  0.1288646E+00  0.2187500E+01  0.1981053E-01  0.1962285E-03  0.2187500E+01  0.3858405E-01  0.7443645E-03  0.2187500E+01  0.1659386E+00  0.1376782E-01  0.2187500E+01  0.5103903E-02  0.1302492E-04  0.2187500E+01  0.1599947E-01  0.1279915E-03  0.2187500E+01  0.5479117E-03  0.1501036E-06
  0.2291667E+01  0.4312304E+00  0.9297983E-01  0.2291667E+01  0.4599247E-01  0.1057654E-02  0.2291667E+01  0.4231752E-01  0.8953864E-03  0.2291667E+01  0.1487765E+00  0.1106722E-01  0.2291667E+01  0.2804798E-02  0.3933446E-05  0.2291667E+01  0.1480174E-01  0.1095458E-03  0.2291667E+01  0.2633801E-02  0.3468455E-05
  0.2395833E+01  0.3820038E+00  0.7296347E-01  0.2395833E+01  0.2560241E-01  0.3277416E-03  0.2395833E+01  0.1331194E+00  0.8860392E-02  0.2395833E+01  0.1365822E+00  0.9327349E-02  0.2395833E+01  0.1953446E-01  0.1907976E-03  0.2395833E+01  0.1292137E-01  0.8348093E-04  0.2395833E+01  0.1439498E-02  0.1036077E-05
  0.2500000E+01  0.3943273E+00  0.7774702E-01  0.2500000E+01  0.3733169E-01  0.6968274E-03  0.2500000E+01  0.8971618E-01  0.4024496E-02  0.2500000E+01  0.1293384E+00  0.8364216E-02  0.2500000E+01  0.1513259E-01  0.1144976E-03  0.2500000E+01  0.1231931E-01  0.7588273E-04  0.2500000E+01  0.2446088E-02  0.2991674E-05
  0.2604167E+01  0.3477357E+00  0.6046005E-01  0.2604167E+01  0.2098783E-01  0.2202445E-03  0.2604167E+01  0.1237371E+00  0.7655430E-02  0.2604167E+01  0.1215865E+00  0.7391637E-02  0.2604167E+01  0.1693548E-01  0.1434053E-03  0.2604167E+01  0.1283845E-01  0.8241289E-04  0.2604167E+01  0.1040073E-02  0.5408758E-06
  0.2708333E+01  0.3456847E+00  0.5974897E-01  0.2708333E+01  0.2451620E-01  0.3005222E-03  0.2708333E+01  0.5824071E-01  0.1695990E-02  0.2708333E+01  0.1351471E+00  0.9132368E-02  0.2708333E+01  0.6248486E-02  0.1952179E-04  0.2708333E+01  0.1303632E-01  0.8497280E-04  0.2708333E+01  0.1309090E-02  0.8568582E-06
  0.2812500E+01  0.3232765E+00  0.5225385E-01  0.2812500E+01  0.3672811E-01  0.6744770E-03  0.2812500E+01  0.5319032E-01  0.1414605E-02  0.2812500E+01  0.5083691E-01  0.1292196E-02  0.2812500E+01  0.4424431E-02  0.9787795E-05  0.2812500E+01  0.6672235E-02  0.2225936E-04  0.2812500E+01  0.4200182E-02  0.8820766E-05
  0.2916667E+01  0.2454169E+00  0.3011472E-01  0.2916667E+01  0.1610219E-01  0.1296402E-03  0.2916667E+01  0.1544552E-01  0.1192821E-03  0.2916667E+01  0.3662328E-01  0.6706322E-03  0.2916667E+01  0.2071780E-02  0.2146137E-05  0.2916667E+01  0.8510407E-02  0.3621351E-04  0.2916667E+01  0.1825198E-02  0.1665674E-05
  0.3020833E+01  0.2709855E+00  0.3671657E-01  0.3020833E+01  0.2331863E-01  0.2718792E-03  0.3020833E+01  0.7161103E-02  0.2564070E-04  0.3020833E+01  0.4289124E-01  0.9198292E-03  0.3020833E+01  0.2373986E-02  0.2817904E-05  0.3020833E+01  0.8607022E-02  0.3704042E-04  0.3020833E+01  0.2078404E-02  0.2159882E-05
  0.3125000E+01  0.2445780E+00  0.2990919E-01  0.3125000E+01  0.1417216E-01  0.1004251E-03  0.3125000E+01  0.9208466E-01  0.4239792E-02  0.3125000E+01  0.6473934E-01  0.2095591E-02  0.3125000E+01  0.1288260E-01  0.8298067E-04  0.3125000E+01  0.7788626E-02  0.3033135E-04  0.3125000E+01  0.1075127E-02  0.5779493E-06
  0.3229167E+01  0.2818591E+00  0.3972227E-01  0.3229167E+01  0.1238828E-01  0.7673478E-04  0.3229167E+01  0.3444300E-02  0.5931603E-05  0.3229167E+01  0.4154743E-01  0.8630946E-03  0.3229167E+01  0.3018845E-02  0.4556712E-05  0.3229167E+01  0.7786691E-02  0.3031628E-04  0.3229167E+01  0.1306916E-02  0.8540151E-06
  0.3333333E+01  0.2551671E+00  0.3255511E-01  0.3333333E+01  0.1142436E-01  0.6525795E-04  0.3333333E+01  0.1768840E-01  0.1564397E-03  0.3333333E+01  0.4692662E-01  0.1101054E-02  0.3333333E+01  0.2240250E-02  0.2509360E-05  0.3333333E+01  0.7745378E-02  0.2999544E-04  0.3333333E+01  0.1130436E-02  0.6389432E-06
  0.3437500E+01  0.2472403E+00  0.3056388E-01  0.3437500E+01  0.1040082E-01  0.5408851E-04  0.3437500E+01  0.1173526E-01  0.6885819E-04  0.3437500E+01  0.4894371E-01  0.1197743E-02  0.3437500E+01  0.3217444E-02  0.5175972E-05  0.3437500E+01  0.6081939E-02  0.1849499E-04  0.3437500E+01  0.1350167E-02  0.9114761E-06
  0.3541667E+01  0.2597996E+00  0.3374791E-01  0.3541667E+01  0.2563431E-01  0.3285589E-03  0.3541667E+01  0.6026972E-01  0.1816220E-02  0.3541667E+01  0.3761177E-01  0.7073226E-03  0.3541667E+01  0.4265172E-02  0.9095847E-05  0.3541667E+01  0.5750299E-02  0.1653297E-04  0.3541667E+01  0.3186495E-02  0.5076875E-05
  0.3645833E+01  0.1734621E+00  0.1504454E-01  0.3645833E+01  0.1601266E-01  0.1282027E-03  0.3645833E+01  0.3379288E-01  0.5709792E-03  0.3645833E+01  0.3494365E-01  0.6105293E-03  0.3645833E+01  0.1208630E-02  0.7303936E-06  0.3645833E+01  0.5796941E-02  0.1680226E-04  0.3645833E+01  0.2595988E-02  0.3369577E-05
  0.3750000E+01  0.2215203E+00  0.2453561E-01  0.3750000E+01  0.2386389E-01  0.2847427E-03  0.3750000E+01  0.3113597E-01  0.4847242E-03  0.3750000E+01  0.4434259E-01  0.9831326E-03  0.3750000E+01  0.1654646E-02  0.1368926E-05  0.3750000E+01  0.6552113E-02  0.2146509E-04  0.3750000E+01  0.3964973E-02  0.7860507E-05
  0.3854167E+01  0.1651931E+00  0.1364439E-01  0.3854167E+01  0.1527822E-01  0.1167120E-03  0.3854167E+01  0.7043968E-02  0.2480875E-04  0.3854167E+01  0.5387132E-01  0.1451060E-02  0.3854167E+01  0.1839094E-02  0.1691133E-05  0.3854167E+01  0.7206545E-02  0.2596714E-04  0.3854167E+01  0.1518254E-02  0.1152547E-05
  0.3958333E+01  0.1601131E+00  0.1281810E-01  0.3958333E+01  0.1375899E-01  0.9465490E-04  0.3958333E+01  0.3414292E-01  0.5828695E-03  0.3958333E+01  0.2412856E-01  0.2910938E-03  0.3958333E+01  0.1778913E-02  0.1582265E-05  0.3958333E+01  0.5731408E-02  0.1642452E-04  0.3958333E+01  0.1355638E-02  0.9188768E-06
  0.4062500E+01  0.1220650E+00  0.7449932E-02  0.4062500E+01  0.1941716E-01  0.1885130E-03  0.4062500E+01  0.1802706E-01  0.1624874E-03  0.4062500E+01  0.4793786E-01  0.1149019E-02  0.4062500E+01  0.2315449E-02  0.2680653E-05  0.4062500E+01  0.5949339E-02  0.1769732E-04  0.4062500E+01  0.1514527E-02  0.1146896E-05
  0.4166667E+01  0.2078587E+00  0.2160262E-01  0.4166667E+01  0.2504190E-01  0.3135484E-03  0.4166667E+01  0.5091906E-01  0.1296375E-02  0.4166667E+01  0.4733530E-01  0.1120315E-02  0.4166667E+01  0.3906858E-02  0.7631768E-05  0.4166667E+01  0.8186934E-02  0.3351294E-04  0.4166667E+01  0.3268311E-02  0.5340928E-05
  0.4270833E+01  0.1971191E+00  0.1942797E-01  0.4270833E+01  0.1820271E-02  0.1656693E-05  0.4270833E+01  0.2221578E-01  0.2467705E-03  0.4270833E+01  0.4438473E-01  0.9850023E-03  0.4270833E+01  0.2350446E-02  0.2762297E-05  0.4270833E+01  0.3774723E-02  0.7124266E-05  0.4270833E+01  0.6527540E-03  0.2130439E-06
  0.4375000E+01  0.1463434E+00  0.1070820E-01  0.4375000E+01  0.2753030E-02  0.3789588E-05  0.4375000E+01  0.2567106E-01  0.3295016E-03  0.4375000E+01  0.4324608E-01  0.9351114E-03  0.4375000E+01  0.5218730E-02  0.1361757E-04  0.4375000E+01  0.5002331E-02  0.1251166E-04  0.4375000E+01  0.1653604E-02  0.1367202E-05
  0.4479167E+01  0.1403043E+00  0.9842647E-02  0.4479167E+01  0.7285349E-02  0.2653815E-04  0.4479167E+01  0.1837398E-01  0.1688016E-03  0.4479167E+01  0.3881200E-02  0.7531857E-05  0.4479167E+01  0.2189950E-02  0.2397940E-05  0.4479167E+01  0.4669930E-02  0.1090412E-04  0.4479167E+01  0.1503987E-02  0.1130988E-05
  0.4583333E+01  0.1519312E+00  0.1154155E-01  0.4583333E+01  0.5479527E-02  0.1501261E-04  0.4583333E+01  0.2504298E-01  0.3135754E-03  0.4583333E+01  0.2034797E-01  0.2070200E-03  0.4583333E+01  0.4519645E-02  0.1021360E-04  0.4583333E+01  0.5544723E-02  0.1537198E-04  0.4583333E+01  0.1054275E-02  0.5557483E-06
  0.4687500E+01  0.1251771E+00  0.7834655E-02  0.4687500E+01  0.2797551E-01  0.3913147E-03  0.4687500E+01  0.8480379E-02  0.3595842E-04  0.4687500E+01  0.4214148E-01  0.8879521E-03  0.4687500E+01  0.4253320E-02  0.9045365E-05  0.4687500E+01  0.5421850E-02  0.1469823E-04  0.4687500E+01  0.2558150E-02  0.3272065E-05
  0.4791667E+01  0.1671088E+00  0.1396267E-01  0.4791667E+01  0.9287268E-02  0.4312668E-04  0.4791667E+01  0.1511288E-01  0.1141995E-03  0.4791667E+01  0.1309733E-01  0.8577006E-04  0.4791667E+01  0.3163292E-02  0.5003207E-05  0.4791667E+01  0.4083250E-02  0.8336465E-05  0.4791667E+01  0.9026146E-03  0.4073565E-06
  0.4895833E+01  0.1531768E+00  0.1173156E-01  0.4895833E+01  0.2405592E-01  0.2893436E-03  0.4895833E+01  0.4162034E-01  0.8661262E-03  0.4895833E+01  0.2177892E-01  0.2371608E-03  0.4895833E+01  0.1000758E-01  0.5007587E-04  0.4895833E+01  0.5754787E-02  0.1655878E-04  0.4895833E+01  0.1836298E-02  0.1685995E-05
  0.5000000E+01  0.1586029E+00  0.1257744E-01  0.5000000E+01  0.1007582E-01  0.5076112E-04  0.5000000E+01  0.1379926E-01  0.9520975E-04  0.5000000E+01  0.1395897E-01  0.9742642E-04  0.5000000E+01  0.4083478E-02  0.8337398E-05  0.5000000E+01  0.4006019E-02  0.8024092E-05  0.5000000E+01  0.1130634E-02  0.6391663E-06
  0.5104167E+01  0.1661187E+00  0.1379771E-01  0.5104167E+01  0.7617916E-02  0.2901632E-04  0.5104167E+01  0.4690594E-02  0.1100084E-04  0.5104167E+01  0.2141900E-01  0.2293867E-03  0.5104167E+01  0.4849385E-02  0.1175827E-04  0.5104167E+01  0.3560272E-02  0.6337768E-05  0.5104167E+01  0.8339029E-03  0.3476970E-06
  0.5208333E+01  0.1498588E+00  0.1122883E-01  0.5208333E+01  0.1052984E-01  0.5543880E-04  0.5208333E+01  0.1089750E-01  0.5937772E-04  0.5208333E+01  0.2947153E-01  0.4342855E-03  0.5208333E+01  0.3267019E-02  0.5336707E-05  0.5208333E+01  0.4485000E-02  0.1005762E-04  0.5208333E+01  0.1534160E-02  0.1176823E-05
  0.5312500E+01  0.1291571E+00  0.8340771E-02  0.5312500E+01  0.2287141E-01  0.2615508E-03  0.5312500E+01  0.2205501E-01  0.2432118E-03  0.5312500E+01  0.2127196E-01  0.2262481E-03  0.5312500E+01  0.4263033E-02  0.9086725E-05  0.5312500E+01  0.4996101E-02  0.1248051E-04  0.5312500E+01  0.2385616E-02  0.2845582E-05
  0.5416667E+01  0.1306425E+00  0.8533734E-02  0.5416667E+01  0.7968470E-02  0.3174825E-04  0.5416667E+01  0.1161133E-01  0.6741149E-04  0.5416667E+01  0.1266969E-01  0.8026051E-04  0.5416667E+01  0.9716254E-02  0.4720280E-04  0.5416667E+01  0.3468771E-02  0.6016186E-05  0.5416667E+01  0.6368934E-03  0.2028166E-06
  0.5520833E+01  0.1177725E+00  0.6935187E-02  0.5520833E+01  0.6419440E-02  0.2060461E-04  0.5520833E+01  0.1425980E-01  0.1016709E-03  0.5520833E+01  0.2302922E-01  0.2651726E-03  0.5520833E+01  0.6520150E-02  0.2125618E-04  0.5520833E+01  0.1603997E-02  0.1286404E-05  0.5520833E+01  0.8576399E-03  0.3677731E-06
  0.5625000E+01  0.1293602E+00  0.8367032E-02  0.5625000E+01  0.1389062E-01  0.9647469E-04  0.5625000E+01  0.2233720E-01  0.2494753E-03  0.5625000E+01  0.1883426E-01  0.1773646E-03  0.5625000E+01  0.6428415E-02  0.2066226E-04  0.5625000E+01  0.4194589E-02  0.8797290E-05  0.5625000E+01  0.2081429E-02  0.2166174E-05
  0.5729167E+01  0.1085232E+00  0.5888643E-02  0.5729167E+01  0.1257022E-01  0.7900520E-04  0.5729167E+01  0.8459884E-02  0.3578481E-04  0.5729167E+01  0.3516566E-01  0.6183117E-03  0.5729167E+01  0.1720493E-01  0.1480048E-03  0.5729167E+01  0.4572375E-02  0.1045331E-04  0.5729167E+01  0.1181183E-02  0.6975965E-06
  0.5833333E+01  0.1087955E+00  0.5918227E-02  0.5833333E+01  0.7309704E-02  0.2671588E-04  0.5833333E+01  0.2486229E-01  0.3090667E-03  0.5833333E+01  0.3005583E-01  0.4516764E-03  0.5833333E+01  0.1802326E-01  0.1624189E-03  0.5833333E+01  0.3443119E-02  0.5927535E-05  0.5833333E+01  0.3098900E-02  0.4801590E-05
  0.5937500E+01  0.9622818E-01  0.4629931E-02  0.5937500E+01  0.1188941E-01  0.7067905E-04  0.5937500E+01  0.1520616E-01  0.1156137E-03  0.5937500E+01  0.1713507E-01  0.1468052E-03  0.5937500E+01  0.5657968E-02  0.1600630E-04  0.5937500E+01  0.3859269E-02  0.7446980E-05  0.5937500E+01  0.7914659E-03  0.3132091E-06
  0.6041667E+01  0.1207419E+00  0.7289302E-02  0.6041667E+01  0.8620697E-02  0.3715821E-04  0.6041667E+01  0.6380176E-02  0.2035332E-04  0.6041667E+01  0.1650647E-01  0.1362317E-03  0.6041667E+01  0.3284366E-02  0.5393530E-05  0.6041667E+01  0.2630856E-02  0.3460701E-05  0.6041667E+01  0.4971870E-03  0.1235974E-06
  0.6145833E+01  0.1192180E+00  0.7106465E-02  0.6145833E+01  0.1034276E-01  0.5348633E-04  0.6145833E+01  0.2164242E-01  0.2341972E-03  0.6145833E+01  0.7727196E-02  0.2985478E-04  0.6145833E+01  0.4355483E-02  0.9485116E-05  0.6145833E+01  0.2832835E-02  0.4012478E-05  0.6145833E+01  0.1448267E-02  0.1048739E-05
  0.6250000E+01  0.1163551E+00  0.6769259E-02  0.6250000E+01  0.2037105E-01  0.2074898E-03  0.6250000E+01  0.1833585E-01  0.1681017E-03  0.6250000E+01  0.1675605E-01  0.1403826E-03  0.6250000E+01  0.9520507E-02  0.4532003E-04  0.6250000E+01  0.3239919E-02  0.5248539E-05  0.6250000E+01  0.1742317E-02  0.1517834E-05
  0.6354167E+01  0.9894973E-01  0.4895525E-02  0.6354167E+01  0.4415046E-02  0.9746315E-05  0.6354167E+01  0.1934818E-01  0.1871760E-03  0.6354167E+01  0.8778681E-02  0.3853262E-04  0.6354167E+01  0.5993406E-02  0.1796046E-04  0.6354167E+01  0.3413148E-02  0.5824790E-05  0.6354167E+01  0.1064115E-02  0.5661698E-06
  0.6458333E+01  0.1150346E+00  0.6616482E-02  0.6458333E+01  0.5574111E-02  0.1553536E-04  0.6458333E+01  0.1309094E-01  0.8568642E-04  0.6458333E+01  0.2569279E-01  0.3300597E-03  0.6458333E+01  0.2683341E-02  0.3600159E-05  0.6458333E+01  0.2739309E-02  0.3751908E-05  0.6458333E+01  0.1470136E-02  0.1080649E-05
  0.6562500E+01  0.1047763E+00  0.5489038E-02  0.6562500E+01  0.5862144E-02  0.1718237E-04  0.6562500E+01  0.9056358E-02  0.4100881E-04  0.6562500E+01  0.2432263E-01  0.2957950E-03  0.6562500E+01  0.5046327E-03  0.1273270E-06  0.6562500E+01  0.3138184E-02  0.4924098E-05  0.6562500E+01  0.1048368E-02  0.5495372E-06
  0.6666667E+01  0.1165984E+00  0.6797594E-02  0.6666667E+01  0.8033909E-02  0.3227185E-04  0.6666667E+01  0.2477358E-01  0.3068652E-03  0.6666667E+01  0.1342580E-01  0.9012601E-04  0.6666667E+01  0.2065751E-02  0.2133664E-05  0.6666667E+01  0.2331440E-02  0.2717806E-05  0.6666667E+01  0.2548655E-02  0.3247820E-05
  0.6770834E+01  0.9925082E-01  0.4925363E-02  0.6770834E+01  0.1542744E-02  0.1190029E-05  0.6770834E+01  0.7573133E-02  0.2867617E-04  0.6770834E+01  0.1482027E-01  0.1098202E-03  0.6770834E+01  0.2960100E-02  0.4381095E-05  0.6770834E+01  0.2598026E-02  0.3374869E-05  0.6770834E+01  0.8607179E-03  0.3704177E-06
  0.6875000E+01  0.8540636E-01  0.3647123E-02  0.6875000E+01  0.3979512E-02  0.7918257E-05  0.6875000E+01  0.9418396E-02  0.4435310E-04  0.6875000E+01  0.2711901E-01  0.3677204E-03  0.6875000E+01  0.3677595E-02  0.6762354E-05  0.6875000E+01  0.3797306E-02  0.7209765E-05  0.6875000E+01  0.7709387E-03  0.2971732E-06
  0.6979167E+01  0.1079603E+00  0.5827716E-02  0.6979167E+01  0.4168562E-02  0.8688454E-05  0.6979167E+01  0.5500056E-02  0.1512531E-04  0.6979167E+01  0.9738659E-02  0.4742074E-04  0.6979167E+01  0.3297077E-02  0.5435358E-05  0.6979167E+01  0.3680801E-02  0.6774147E-05  0.6979167E+01  0.1006283E-02  0.5063031E-06
  0.7083334E+01  0.9635393E-01  0.4642040E-02  0.7083334E+01  0.1697306E-01  0.1440424E-03  0.7083334E+01  0.1731342E-01  0.1498772E-03  0.7083334E+01  0.1918141E-01  0.1839632E-03  0.7083334E+01  0.1280746E-02  0.8201546E-06  0.7083334E+01  0.3433586E-02  0.5894755E-05  0.7083334E+01  0.1709706E-02  0.1461548E-05
  0.7187500E+01  0.1027845E+00  0.5282325E-02  0.7187500E+01  0.1650580E-01  0.1362207E-03  0.7187500E+01  0.2811508E-01  0.3952288E-03  0.7187500E+01  0.5560058E-02  0.1545712E-04  0.7187500E+01  0.1137338E-02  0.6467694E-06  0.7187500E+01  0.3139107E-02  0.4926997E-05  0.7187500E+01  0.1315215E-02  0.8648958E-06
  0.7291667E+01  0.8937566E-01  0.3994004E-02  0.7291667E+01  0.9154435E-02  0.4190184E-04  0.7291667E+01  0.8869062E-02  0.3933013E-04  0.7291667E+01  0.1463307E-01  0.1070634E-03  0.7291667E+01  0.2794381E-02  0.3904284E-05  0.7291667E+01  0.1655566E-02  0.1370450E-05  0.7291667E+01  0.5371927E-03  0.1442880E-06
  0.7395834E+01  0.9620602E-01  0.4627799E-02  0.7395834E+01  0.3257069E-02  0.5304249E-05  0.7395834E+01  0.1322516E-01  0.8745240E-04  0.7395834E+01  0.6265927E-02  0.1963092E-04  0.7395834E+01  0.1017045E-02  0.5171903E-06  0.7395834E+01  0.2314155E-02  0.2677657E-05  0.7395834E+01  0.5369334E-03  0.1441488E-06
  0.7500000E+01  0.1230370E+00  0.7569054E-02  0.7500000E+01  0.5717306E-02  0.1634379E-04  0.7500000E+01  0.1261201E-01  0.7953142E-04  0.7500000E+01  0.1359796E-01  0.9245231E-04  0.7500000E+01  0.2025368E-02  0.2051058E-05  0.7500000E+01  0.2188319E-02  0.2394370E-05  0.7500000E+01  0.5450764E-03  0.1485542E-06
  0.7604167E+01  0.8077095E-01  0.3261973E-02  0.7604167E+01  0.8375840E-02  0.3507735E-04  0.7604167E+01  0.1424888E-01  0.1015153E-03  0.7604167E+01  0.7138548E-02  0.2547943E-04  0.7604167E+01  0.1553013E-02  0.1205925E-05  0.7604167E+01  0.2303557E-02  0.2653187E-05  0.7604167E+01  0.1098234E-02  0.6030586E-06
  0.7708334E+01  0.7580803E-01  0.2873429E-02  0.7708334E+01  0.8406909E-02  0.3533806E-04  0.7708334E+01  0.4690530E-02  0.1100054E-04  0.7708334E+01  0.1305482E-02  0.8521421E-06  0.7708334E+01  0.3445433E-03  0.5935506E-07  0.7708334E+01  0.2653984E-02  0.3521816E-05  0.7708334E+01  0.5948097E-03  0.1768993E-06
  0.7812500E+01  0.9171461E-01  0.4205784E-02  0.7812500E+01  0.6380637E-02  0.2035626E-04  0.7812500E+01  0.1964035E-01  0.1928717E-03  0.7812500E+01  0.2473469E-01  0.3059023E-03  0.7812500E+01  0.1442259E-02  0.1040056E-05  0.7812500E+01  0.1819942E-02  0.1656094E-05  0.7812500E+01  0.1704401E-02  0.1452491E-05
  0.7916667E+01  0.8146858E-01  0.3318565E-02  0.7916667E+01  0.1368246E-01  0.9360481E-04  0.7916667E+01  0.3840358E-02  0.7374175E-05  0.7916667E+01  0.9895436E-02  0.4895982E-04  0.7916667E+01  0.9252125E-03  0.4280091E-06  0.7916667E+01  0.2758341E-02  0.3804222E-05  0.7916667E+01  0.2379429E-03  0.2830842E-07
  0.8020834E+01  0.8374375E-01  0.3506508E-02  0.8020834E+01  0.1807024E-01  0.1632668E-03  0.8020834E+01  0.1202853E-01  0.7234275E-04  0.8020834E+01  0.1419616E-01  0.1007654E-03  0.8020834E+01  0.1362421E-02  0.9280959E-06  0.8020834E+01  0.2786820E-02  0.3883183E-05  0.8020834E+01  0.6216953E-03  0.1932525E-06
  0.8125001E+01  0.8199372E-01  0.3361485E-02  0.8125001E+01  0.1683994E-01  0.1417918E-03  0.8125001E+01  0.7923299E-02  0.3138933E-04  0.8125001E+01  0.3678658E-02  0.6766262E-05  0.8125001E+01  0.6531745E-03  0.2133185E-06  0.8125001E+01  0.3114661E-02  0.4850555E-05  0.8125001E+01  0.9762114E-03  0.4764943E-06
  0.8229167E+01  0.9835796E-01  0.4837144E-02  0.8229167E+01  0.1926036E-01  0.1854807E-03  0.8229167E+01  0.1089850E-01  0.5938868E-04  0.8229167E+01  0.1028095E-01  0.5284900E-04  0.8229167E+01  0.1966895E-02  0.1934338E-05  0.8229167E+01  0.2703527E-02  0.3654528E-05  0.8229167E+01  0.9746207E-03  0.4749428E-06
  0.8333334E+01  0.7979890E-01  0.3183932E-02  0.8333334E+01  0.4154873E-02  0.8631484E-05  0.8333334E+01  0.9197656E-02  0.4229843E-04  0.8333334E+01  0.4604912E-02  0.1060261E-04  0.8333334E+01  0.2539054E-03  0.3223398E-07  0.8333334E+01  0.1966205E-02  0.1932980E-05  0.8333334E+01  0.6327084E-03  0.2001599E-06
  0.8437501E+01  0.7597312E-01  0.2885957E-02  0.8437501E+01  0.7769156E-02  0.3017989E-04  0.8437501E+01  0.1174531E-01  0.6897612E-04  0.8437501E+01  0.9775626E-02  0.4778144E-04  0.8437501E+01  0.5177772E-03  0.1340466E-06  0.8437501E+01  0.3073967E-02  0.4724637E-05  0.8437501E+01  0.9235829E-03  0.4265027E-06
  0.8541667E+01  0.7479138E-01  0.2796875E-02  0.8541667E+01  0.3313227E-02  0.5488737E-05  0.8541667E+01  0.1274976E-01  0.8127819E-04  0.8541667E+01  0.1195976E-01  0.7151796E-04  0.8541667E+01  0.1151390E-03  0.6628494E-08  0.8541667E+01  0.1335567E-02  0.8918702E-06  0.8541667E+01  0.4962094E-03  0.1231119E-06
  0.8645834E+01  0.7478569E-01  0.2796449E-02  0.8645834E+01  0.1296530E-01  0.8404956E-04  0.8645834E+01  0.9619195E-02  0.4626446E-04  0.8645834E+01  0.9305881E-02  0.4329971E-04  0.8645834E+01  0.1281824E-02  0.8215360E-06  0.8645834E+01  0.1702783E-02  0.1449734E-05  0.8645834E+01  0.4784886E-03  0.1144757E-06
  0.8750001E+01  0.8207324E-01  0.3368008E-02  0.8750001E+01  0.9965193E-02  0.4965253E-04  0.8750001E+01  0.1657777E-01  0.1374112E-03  0.8750001E+01  0.1207394E-01  0.7288996E-04  0.8750001E+01  0.3391393E-03  0.5750773E-07  0.8750001E+01  0.2541528E-02  0.3229682E-05  0.8750001E+01  0.1457298E-02  0.1061858E-05
  0.8854167E+01  0.7389744E-01  0.2730416E-02  0.8854167E+01  0.5743310E-02  0.1649280E-04  0.8854167E+01  0.9922916E-02  0.4923213E-04  0.8854167E+01  0.1682182E-01  0.1414869E-03  0.8854167E+01  0.6476893E-03  0.2097507E-06  0.8854167E+01  0.2081298E-02  0.2165900E-05  0.8854167E+01  0.5821711E-03  0.1694616E-06
  0.8958334E+01  0.7008339E-01  0.2455841E-02  0.8958334E+01  0.6532355E-02  0.2133583E-04  0.8958334E+01  0.1529237E-01  0.1169283E-03  0.8958334E+01  0.9984841E-02  0.4984852E-04  0.8958334E+01  0.4532344E-03  0.1027107E-06  0.8958334E+01  0.1013780E-02  0.5138745E-06  0.8958334E+01  0.9623631E-03  0.4630714E-06
  0.9062501E+01  0.7120882E-01  0.2535348E-02  0.9062501E+01  0.9402727E-02  0.4420563E-04  0.9062501E+01  0.1760099E-01  0.1548974E-03  0.9062501E+01  0.5090024E-02  0.1295417E-04  0.9062501E+01  0.9676259E-03  0.4681499E-06  0.9062501E+01  0.2060754E-02  0.2123353E-05  0.9062501E+01  0.1176933E-02  0.6925854E-06
  0.9166667E+01  0.7446513E-01  0.2772528E-02  0.9166667E+01  0.4565836E-02  0.1042343E-04  0.9166667E+01  0.5352966E-02  0.1432712E-04  0.9166667E+01  0.6760662E-02  0.2285327E-04  0.9166667E+01  0.3653349E-03  0.6673479E-07  0.9166667E+01  0.1946258E-02  0.1893961E-05  0.9166667E+01  0.9708406E-03  0.4712657E-06
  0.9270834E+01  0.7664356E-01  0.2937118E-02  0.9270834E+01  0.9058989E-02  0.4103264E-04  0.9270834E+01  0.1482925E-01  0.1099534E-03  0.9270834E+01  0.5752232E-02  0.1654409E-04  0.9270834E+01  0.5336161E-03  0.1423731E-06  0.9270834E+01  0.2153107E-02  0.2317935E-05  0.9270834E+01  0.9016963E-03  0.4065281E-06
  0.9375001E+01  0.7579543E-01  0.2872474E-02  0.9375001E+01  0.3795169E-02  0.7201652E-05  0.9375001E+01  0.1774253E-01  0.1573987E-03  0.9375001E+01  0.8418124E-02  0.3543241E-04  0.9375001E+01  0.2551935E-03  0.3256186E-07  0.9375001E+01  0.2996168E-02  0.4488511E-05  0.9375001E+01  0.2062577E-02  0.2127112E-05
  0.9479167E+01  0.6435404E-01  0.2070721E-02  0.9479167E+01  0.4360331E-03  0.9506243E-07  0.9479167E+01  0.5759090E-02  0.1658356E-04  0.9479167E+01  0.4977310E-02  0.1238680E-04  0.9479167E+01  0.3489361E-03  0.6087819E-07  0.9479167E+01  0.1865346E-02  0.1739759E-05  0.9479167E+01  0.8465575E-03  0.3583298E-06
  0.9583334E+01  0.6840521E-01  0.2339636E-02  0.9583334E+01  0.4596972E-02  0.1056608E-04  0.9583334E+01  0.1393524E-01  0.9709542E-04  0.9583334E+01  0.3728045E-02  0.6949160E-05  0.9583334E+01  0.4339725E-03  0.9416605E-07  0.9583334E+01  0.2743439E-02  0.3763228E-05  0.9583334E+01  0.8590019E-03  0.3689421E-06