TITLE = "PITCH AND HEAVE TRANSFER FUNCTION DATA FOR MODEL 5512 WO BILGE KEELS"
VARIABLES = f, fe, xa, xph, ya, yph, za, zph, rolla, rollph, pitcha, pitchph, yawa, yawph, U_f_e, U_TF_x5, U_gamma_x5, U_TF_x3, U_gamma_x3
ZONE T="Fr=0.340,  Ak=0.075", i=    1, j=  1, k=  1, F=POINT
  0.7382000E+00  0.1382400E+01  0.0000000E+00  0.0000000E+00  0.0000000E+00  0.0000000E+00  0.5350707E+00 -0.6582577E+02  0.0000000E+00  0.0000000E+00  0.3634187E+00 -0.2012880E+03  0.0000000E+00  0.0000000E+00  0.0000000E+00  0.0000000E+00  0.0000000E+00  0.0000000E+00  0.0000000E+00
