TITLE = "PITCH AND HEAVE TIME HISTORY DATA FOR MODEL 5512 WO BILGE KEELS"
VARIABLES = t, wave, x, y, z, roll, pitch, yaw, visibility, Uc
ZONE T="seak1_01, Fr=0.410,  Ak=0.025", i= 1600, j=  1, k=  1, F=POINT
  0.0000000E+00  0.3414352E+01 -0.3005997E+01 -0.2924076E+00 -0.1369492E+02 -0.1888894E-01  0.5529541E+00  0.9270079E-02  0.0000000E+00  0.2225916E+01
  0.6250000E-02  0.3582748E+01 -0.3002903E+01 -0.2855878E+00 -0.1370244E+02 -0.1897460E-01  0.5528710E+00  0.1015940E-01  0.0000000E+00  0.2225951E+01
  0.1250000E-01  0.3950028E+01 -0.3000428E+01 -0.2649398E+00 -0.1372570E+02 -0.1920994E-01  0.5525848E+00  0.1199835E-01  0.0000000E+00  0.2226215E+01
  0.1875000E-01  0.4424313E+01 -0.3006740E+01 -0.2227395E+00 -0.1377236E+02 -0.1968815E-01  0.5520123E+00  0.1434978E-01  0.0000000E+00  0.2226804E+01
  0.2500000E-01  0.4928504E+01 -0.3025164E+01 -0.1628302E+00 -0.1384486E+02 -0.2056945E-01  0.5510333E+00  0.1543506E-01  0.0000000E+00  0.2227529E+01
  0.3125000E-01  0.5424213E+01 -0.3052592E+01 -0.9998211E-01 -0.1393922E+02 -0.2221191E-01  0.5495266E+00  0.1374685E-01  0.0000000E+00  0.2227982E+01
  0.3750000E-01  0.5896244E+01 -0.3083108E+01 -0.6019321E-01 -0.1404894E+02 -0.2503031E-01  0.5472061E+00  0.8199875E-02  0.0000000E+00  0.2228041E+01
  0.4375000E-01  0.6337486E+01 -0.3114829E+01 -0.5574722E-01 -0.1416408E+02 -0.2894932E-01  0.5441321E+00  0.0000000E+00  0.0000000E+00  0.2227950E+01
  0.5000000E-01  0.6745185E+01 -0.3146626E+01 -0.8129444E-01 -0.1426716E+02 -0.3321531E-01  0.5405610E+00 -0.8441049E-02  0.0000000E+00  0.2228131E+01
  0.5625000E-01  0.7116977E+01 -0.3171490E+01 -0.1150571E+00 -0.1432804E+02 -0.3660716E-01  0.5370501E+00 -0.1471154E-01  0.0000000E+00  0.2228734E+01
  0.6250000E-01  0.7447731E+01 -0.3173750E+01 -0.1395515E+00 -0.1432322E+02 -0.3847667E-01  0.5336142E+00 -0.1784679E-01  0.0000000E+00  0.2229519E+01
  0.6875000E-01  0.7726385E+01 -0.3136301E+01 -0.1505565E+00 -0.1425601E+02 -0.3897445E-01  0.5302835E+00 -0.1832913E-01  0.0000000E+00  0.2230002E+01
  0.7500000E-01  0.7944643E+01 -0.3060650E+01 -0.1542503E+00 -0.1416982E+02 -0.3855272E-01  0.5271035E+00 -0.1688210E-01  0.0000000E+00  0.2229912E+01
  0.8125000E-01  0.8100534E+01 -0.2970455E+01 -0.1588472E+00 -0.1412612E+02 -0.3721142E-01  0.5246317E+00 -0.1447037E-01  0.0000000E+00  0.2229399E+01
  0.8750000E-01  0.8196829E+01 -0.2905955E+01 -0.1663830E+00 -0.1417404E+02 -0.3425729E-01  0.5231094E+00 -0.1133512E-01  0.0000000E+00  0.2228887E+01
  0.9375000E-01  0.8235106E+01 -0.2895105E+01 -0.1755772E+00 -0.1430997E+02 -0.2961488E-01  0.5224159E+00 -0.8441049E-02  0.0000000E+00  0.2228675E+01
  0.1000000E+00  0.8216157E+01 -0.2937903E+01 -0.1837917E+00 -0.1448417E+02 -0.2376667E-01  0.5219032E+00 -0.6270493E-02  0.0000000E+00  0.2228855E+01
  0.1062500E+00  0.8143532E+01 -0.3008581E+01 -0.1865793E+00 -0.1462010E+02 -0.1794858E-01  0.5209233E+00 -0.6270493E-02  0.0000000E+00  0.2229487E+01
  0.1125000E+00  0.8021181E+01 -0.3074059E+01 -0.1776102E+00 -0.1467406E+02 -0.1231161E-01  0.5189338E+00 -0.8441049E-02  0.0000000E+00  0.2230783E+01
  0.1187500E+00  0.7848314E+01 -0.3117760E+01 -0.1465621E+00 -0.1464725E+02 -0.6946112E-02  0.5159796E+00 -0.1229981E-01  0.0000000E+00  0.2232742E+01
  0.1250000E+00  0.7617437E+01 -0.3138779E+01 -0.9471760E-01 -0.1458247E+02 -0.2063148E-02  0.5125281E+00 -0.1615852E-01  0.0000000E+00  0.2235003E+01
  0.1312500E+00  0.7324211E+01 -0.3149401E+01 -0.3925803E-01 -0.1452069E+02  0.8755555E-03  0.5093180E+00 -0.1953469E-01  0.0000000E+00  0.2236841E+01
  0.1375000E+00  0.6972578E+01 -0.3160100E+01 -0.1612531E-01 -0.1447911E+02  0.6793212E-03  0.5066508E+00 -0.2291049E-01  0.0000000E+00  0.2237836E+01
  0.1437500E+00  0.6575157E+01 -0.3179541E+01 -0.5440432E-01 -0.1444987E+02 -0.2531235E-02  0.5045415E+00 -0.2700944E-01  0.0000000E+00  0.2238017E+01
  0.1500000E+00  0.6145362E+01 -0.3207421E+01 -0.1518336E+00 -0.1442364E+02 -0.6842038E-02  0.5027335E+00 -0.3159055E-01  0.0000000E+00  0.2237776E+01
  0.1562500E+00  0.5695034E+01 -0.3239144E+01 -0.2702861E+00 -0.1440495E+02 -0.9479816E-02  0.5010460E+00 -0.3544833E-01  0.0000000E+00  0.2237475E+01
  0.1625000E+00  0.5231283E+01 -0.3266571E+01 -0.3550565E+00 -0.1441218E+02 -0.8394754E-02  0.4991625E+00 -0.3761827E-01  0.0000000E+00  0.2237294E+01
  0.1687500E+00  0.4754509E+01 -0.3289853E+01 -0.3756278E+00 -0.1445106E+02 -0.3526606E-02  0.4970078E+00 -0.3785919E-01  0.0000000E+00  0.2237264E+01
  0.1750000E+00  0.4259585E+01 -0.3311704E+01 -0.3385552E+00 -0.1450741E+02  0.2878889E-02  0.4946724E+00 -0.3665327E-01  0.0000000E+00  0.2237354E+01
  0.1812500E+00  0.3740983E+01 -0.3332879E+01 -0.2824948E+00 -0.1454898E+02  0.7400371E-02  0.4926081E+00 -0.3544734E-01  0.0000000E+00  0.2237475E+01
  0.1875000E+00  0.3199100E+01 -0.3342527E+01 -0.2474583E+00 -0.1455318E+02  0.7490742E-02  0.4909503E+00 -0.3568827E-01  0.0000000E+00  0.2237655E+01
  0.1937500E+00  0.2637091E+01 -0.3325805E+01 -0.2528867E+00 -0.1452031E+02  0.3195186E-02  0.4897743E+00 -0.3882290E-01  0.0000000E+00  0.2237836E+01
  0.2000000E+00  0.2059300E+01 -0.3279697E+01 -0.2968954E+00 -0.1446876E+02 -0.3843396E-02  0.4890049E+00 -0.4436883E-01  0.0000000E+00  0.2237927E+01
  0.2062500E+00  0.1470068E+01 -0.3218366E+01 -0.3669744E+00 -0.1442173E+02 -0.1177105E-01  0.4889741E+00 -0.5136142E-01  0.0000000E+00  0.2237535E+01
  0.2125000E+00  0.8780822E+00 -0.3169767E+01 -0.4586015E+00 -0.1438736E+02 -0.2094920E-01  0.4899682E+00 -0.5835383E-01  0.0000000E+00  0.2236360E+01
  0.2187500E+00  0.2924149E+00 -0.3152135E+01 -0.5645429E+00 -0.1436596E+02 -0.3146821E-01  0.4920173E+00 -0.6486389E-01  0.0000000E+00  0.2234462E+01
  0.2250000E+00 -0.2837794E+00 -0.3166074E+01 -0.6722161E+00 -0.1435239E+02 -0.4274044E-01  0.4945940E+00 -0.7016834E-01  0.0000000E+00  0.2232414E+01
  0.2312500E+00 -0.8544515E+00 -0.3194027E+01 -0.7523108E+00 -0.1434938E+02 -0.5185748E-01  0.4970051E+00 -0.7330278E-01  0.0000000E+00  0.2230968E+01
  0.2375000E+00 -0.1424729E+01 -0.3216028E+01 -0.7830515E+00 -0.1436084E+02 -0.5722192E-01  0.4988439E+00 -0.7330278E-01  0.0000000E+00  0.2230396E+01
  0.2437500E+00 -0.1992244E+01 -0.3221828E+01 -0.7537379E+00 -0.1438677E+02 -0.5880370E-01  0.5000952E+00 -0.7040945E-01  0.0000000E+00  0.2230516E+01
  0.2500000E+00 -0.2549893E+01 -0.3213160E+01 -0.6815497E+00 -0.1441571E+02 -0.5890870E-01  0.5011207E+00 -0.6582834E-01  0.0000000E+00  0.2230818E+01
  0.2562500E+00 -0.3088210E+01 -0.3198992E+01 -0.5919555E+00 -0.1442929E+02 -0.5976759E-01  0.5023721E+00 -0.6100611E-01  0.0000000E+00  0.2231089E+01
  0.2625000E+00 -0.3599303E+01 -0.3186481E+01 -0.5142685E+00 -0.1441000E+02 -0.6309845E-01  0.5044971E+00 -0.5618389E-01  0.0000000E+00  0.2231179E+01
  0.2687500E+00 -0.4076065E+01 -0.3177136E+01 -0.4577580E+00 -0.1435847E+02 -0.6879568E-01  0.5076312E+00 -0.5136167E-01  0.0000000E+00  0.2231119E+01
  0.2750000E+00 -0.4515333E+01 -0.3169071E+01 -0.4203142E+00 -0.1428975E+02 -0.7511074E-01  0.5115638E+00 -0.4678055E-01  0.0000000E+00  0.2230848E+01
  0.2812500E+00 -0.4921444E+01 -0.3161309E+01 -0.3912355E+00 -0.1423247E+02 -0.7905950E-01  0.5155721E+00 -0.4388722E-01  0.0000000E+00  0.2230577E+01
  0.2875000E+00 -0.5302290E+01 -0.3157091E+01 -0.3672793E+00 -0.1420232E+02 -0.7835124E-01  0.5195808E+00 -0.4388722E-01  0.0000000E+00  0.2230486E+01
  0.2937500E+00 -0.5664586E+01 -0.3161465E+01 -0.3477664E+00 -0.1420504E+02 -0.7309154E-01  0.5235595E+00 -0.4678055E-01  0.0000000E+00  0.2230667E+01
  0.3000000E+00 -0.6007147E+01 -0.3175335E+01 -0.3329982E+00 -0.1422766E+02 -0.6484790E-01  0.5277791E+00 -0.5087938E-01  0.0000000E+00  0.2230998E+01
  0.3062500E+00 -0.6323665E+01 -0.3193124E+01 -0.3205645E+00 -0.1425782E+02 -0.5550420E-01  0.5320136E+00 -0.5377247E-01  0.0000000E+00  0.2231420E+01
  0.3125000E+00 -0.6605454E+01 -0.3203753E+01 -0.3071503E+00 -0.1428224E+02 -0.4465358E-01  0.5365193E+00 -0.5377185E-01  0.0000000E+00  0.2232143E+01
  0.3187500E+00 -0.6846597E+01 -0.3199306E+01 -0.2921528E+00 -0.1429912E+02 -0.3243160E-01  0.5411911E+00 -0.5087753E-01  0.0000000E+00  0.2233258E+01
  0.3250000E+00 -0.7045513E+01 -0.3180011E+01 -0.2767025E+00 -0.1430393E+02 -0.1874778E-01  0.5459083E+00 -0.4629525E-01  0.0000000E+00  0.2234673E+01
  0.3312500E+00 -0.7203781E+01 -0.3150391E+01 -0.2571833E+00 -0.1428944E+02 -0.5139136E-02  0.5498571E+00 -0.4147204E-01  0.0000000E+00  0.2235938E+01
  0.3375000E+00 -0.7321397E+01 -0.3113312E+01 -0.2198821E+00 -0.1423668E+02  0.9358887E-02  0.5528868E+00 -0.3664920E-01  0.0000000E+00  0.2236842E+01
  0.3437500E+00 -0.7394811E+01 -0.3062673E+01 -0.1424945E+00 -0.1414384E+02  0.2471617E-01  0.5550428E+00 -0.3206790E-01  0.0000000E+00  0.2237384E+01
  0.3500000E+00 -0.7418099E+01 -0.2998325E+01 -0.2343735E-01 -0.1403081E+02  0.4054074E-01  0.5568825E+00 -0.2821031E-01  0.0000000E+00  0.2237776E+01
  0.3562500E+00 -0.7388105E+01 -0.2931117E+01  0.1129509E+00 -0.1394219E+02  0.5327580E-01  0.5584961E+00 -0.2676426E-01  0.0000000E+00  0.2238168E+01
  0.3625000E+00 -0.7304435E+01 -0.2887569E+01  0.2174651E+00 -0.1390843E+02  0.6124839E-01  0.5601547E+00 -0.2821191E-01  0.0000000E+00  0.2238559E+01
  0.3687500E+00 -0.7166696E+01 -0.2887348E+01  0.2624503E+00 -0.1393104E+02  0.6448863E-01  0.5618582E+00 -0.3182975E-01  0.0000000E+00  0.2238921E+01
  0.3750000E+00 -0.6972518E+01 -0.2929774E+01  0.2465500E+00 -0.1398351E+02  0.6478994E-01  0.5638025E+00 -0.3520629E-01  0.0000000E+00  0.2239101E+01
  0.3812500E+00 -0.6718354E+01 -0.2993898E+01  0.1950827E+00 -0.1403416E+02  0.6228796E-01  0.5659575E+00 -0.3665358E-01  0.0000000E+00  0.2239011E+01
  0.3875000E+00 -0.6406569E+01 -0.3054179E+01  0.1265858E+00 -0.1406612E+02  0.5559623E-01  0.5686699E+00 -0.3520716E-01  0.0000000E+00  0.2238650E+01
  0.3937500E+00 -0.6046243E+01 -0.3100217E+01  0.5484907E-01 -0.1407668E+02  0.4459426E-01  0.5719244E+00 -0.3159055E-01  0.0000000E+00  0.2238168E+01
  0.4000000E+00 -0.5653945E+01 -0.3132317E+01 -0.1311913E-01 -0.1407788E+02  0.3063845E-01  0.5757666E+00 -0.2700938E-01  0.0000000E+00  0.2237776E+01
  0.4062500E+00 -0.5244277E+01 -0.3157486E+01 -0.6631697E-01 -0.1408451E+02  0.1645679E-01  0.5798952E+00 -0.2315135E-01  0.0000000E+00  0.2237475E+01
  0.4125000E+00 -0.4825926E+01 -0.3176627E+01 -0.1021827E+00 -0.1411313E+02  0.1943950E-02  0.5847623E+00 -0.2073963E-01  0.0000000E+00  0.2237234E+01
  0.4187500E+00 -0.4400085E+01 -0.3191547E+01 -0.1228269E+00 -0.1416496E+02 -0.1289988E-01  0.5902926E+00 -0.1977419E-01  0.0000000E+00  0.2236963E+01
  0.4250000E+00 -0.3965573E+01 -0.3202999E+01 -0.1373685E+00 -0.1423216E+02 -0.2849685E-01  0.5961392E+00 -0.1953197E-01  0.0000000E+00  0.2236782E+01
  0.4312500E+00 -0.3521199E+01 -0.3212942E+01 -0.1511580E+00 -0.1429786E+02 -0.4287314E-01  0.6008856E+00 -0.1953123E-01  0.0000000E+00  0.2236752E+01
  0.4375000E+00 -0.3063005E+01 -0.3219117E+01 -0.1699978E+00 -0.1436025E+02 -0.5619518E-01  0.6040198E+00 -0.1953123E-01  0.0000000E+00  0.2236842E+01
  0.4437500E+00 -0.2581513E+01 -0.3217834E+01 -0.1970519E+00 -0.1441902E+02 -0.6843296E-01  0.6055719E+00 -0.1953197E-01  0.0000000E+00  0.2236902E+01
  0.4500000E+00 -0.2063701E+01 -0.3207209E+01 -0.2307373E+00 -0.1447600E+02 -0.7982747E-01  0.6063708E+00 -0.1905074E-01  0.0000000E+00  0.2236812E+01
  0.4562500E+00 -0.1502084E+01 -0.3187468E+01 -0.2562090E+00 -0.1451790E+02 -0.8772562E-01  0.6066273E+00 -0.1712234E-01  0.0000000E+00  0.2236601E+01
  0.4625000E+00 -0.9033726E+00 -0.3159965E+01 -0.2488259E+00 -0.1453599E+02 -0.9012266E-01  0.6063263E+00 -0.1229950E-01  0.0000000E+00  0.2236330E+01
  0.4687500E+00 -0.2896730E+00 -0.3123192E+01 -0.1861327E+00 -0.1452876E+02 -0.8685241E-01  0.6053770E+00 -0.4582222E-02  0.0000000E+00  0.2236029E+01
  0.4750000E+00  0.3121805E+00 -0.3079787E+01 -0.7385650E-01 -0.1450886E+02 -0.8038667E-01  0.6038399E+00  0.4341111E-02  0.0000000E+00  0.2235728E+01
  0.4812500E+00  0.8860080E+00 -0.3039396E+01  0.5092869E-01 -0.1449379E+02 -0.7339314E-01  0.6017451E+00  0.1085278E-01  0.0000000E+00  0.2235456E+01
  0.4875000E+00  0.1434973E+01 -0.3019577E+01  0.1319336E+00 -0.1449981E+02 -0.6685191E-01  0.5987010E+00  0.1254099E-01  0.0000000E+00  0.2235396E+01
  0.4937500E+00  0.1975259E+01 -0.3034122E+01  0.1341947E+00 -0.1453899E+02 -0.6076302E-01  0.5947831E+00  0.8923394E-02  0.0000000E+00  0.2235577E+01
  0.5000000E+00  0.2521075E+01 -0.3080617E+01  0.6358980E-01 -0.1460650E+02 -0.5438802E-01  0.5904282E+00  0.2411728E-02  0.0000000E+00  0.2235969E+01
  0.5062500E+00  0.3073600E+01 -0.3142937E+01 -0.4220402E-01 -0.1468457E+02 -0.4744049E-01  0.5867815E+00 -0.4582284E-02  0.0000000E+00  0.2236089E+01
  0.5125000E+00  0.3622175E+01 -0.3199830E+01 -0.1435509E+00 -0.1474395E+02 -0.3877512E-01  0.5842648E+00 -0.1012926E-01  0.0000000E+00  0.2235426E+01
  0.5187500E+00  0.4152198E+01 -0.3243460E+01 -0.2282435E+00 -0.1477049E+02 -0.2834672E-01  0.5828933E+00 -0.1398802E-01  0.0000000E+00  0.2233587E+01
  0.5250000E+00  0.4653808E+01 -0.3274128E+01 -0.2976389E+00 -0.1476568E+02 -0.1680327E-01  0.5817328E+00 -0.1543506E-01  0.0000000E+00  0.2230904E+01
  0.5312500E+00  0.5122670E+01 -0.3296657E+01 -0.3556565E+00 -0.1474640E+02 -0.6329876E-02  0.5798793E+00 -0.1374685E-01  0.0000000E+00  0.2228100E+01
  0.5375000E+00  0.5559577E+01 -0.3308335E+01 -0.3894126E+00 -0.1472469E+02  0.2440616E-02  0.5760819E+00 -0.8199875E-02  0.0000000E+00  0.2225869E+01
  0.5437500E+00  0.5964912E+01 -0.3306299E+01 -0.3900163E+00 -0.1470660E+02  0.9493331E-02  0.5703253E+00  0.0000000E+00  0.0000000E+00  0.2224392E+01
  0.5500000E+00  0.6338270E+01 -0.3291378E+01 -0.3597278E+00 -0.1469151E+02  0.1525037E-01  0.5634686E+00  0.8682160E-02  0.0000000E+00  0.2223548E+01
  0.5562500E+00  0.6676884E+01 -0.3271635E+01 -0.3112800E+00 -0.1468487E+02  0.1856642E-01  0.5575613E+00  0.1591710E-01  0.0000000E+00  0.2223186E+01
  0.5625000E+00  0.6977999E+01 -0.3256415E+01 -0.2513025E+00 -0.1469662E+02  0.1834105E-01  0.5534921E+00  0.2170463E-01  0.0000000E+00  0.2223247E+01
  0.5687500E+00  0.7239258E+01 -0.3250991E+01 -0.1708275E+00 -0.1474365E+02  0.1475494E-01  0.5513365E+00  0.2652710E-01  0.0000000E+00  0.2223518E+01
  0.5750000E+00  0.7458297E+01 -0.3254836E+01 -0.6947809E-01 -0.1482504E+02  0.8651796E-02  0.5498440E+00  0.2990240E-01  0.0000000E+00  0.2223789E+01
  0.5812500E+00  0.7631560E+01 -0.3264104E+01  0.3405710E-01 -0.1492150E+02  0.3783386E-03  0.5480953E+00  0.2941932E-01  0.0000000E+00  0.2223939E+01
  0.5875000E+00  0.7755096E+01 -0.3274953E+01  0.9614784E-01 -0.1499174E+02 -0.1199456E-01  0.5450209E+00  0.2314882E-01  0.0000000E+00  0.2224150E+01
  0.5937500E+00  0.7824960E+01 -0.3284748E+01  0.8898796E-01 -0.1500862E+02 -0.2858734E-01  0.5406658E+00  0.1205562E-01  0.0000000E+00  0.2224481E+01
  0.6000000E+00  0.7839968E+01 -0.3291604E+01  0.1898364E-01 -0.1497456E+02 -0.4738061E-01  0.5356930E+00  0.2392595E-03  0.0000000E+00  0.2224933E+01
  0.6062500E+00  0.7798931E+01 -0.3294920E+01 -0.7264630E-01 -0.1492422E+02 -0.6303919E-01  0.5317448E+00 -0.7477283E-02  0.0000000E+00  0.2225506E+01
  0.6125000E+00  0.7703422E+01 -0.3296278E+01 -0.1424969E+00 -0.1490010E+02 -0.7288049E-01  0.5296651E+00 -0.9406048E-02  0.0000000E+00  0.2226652E+01
  0.6187500E+00  0.7554622E+01 -0.3299896E+01 -0.1737648E+00 -0.1491880E+02 -0.7687426E-01  0.5294237E+00 -0.7235246E-02  0.0000000E+00  0.2228642E+01
  0.6250000E+00  0.7354119E+01 -0.3308938E+01 -0.1756432E+00 -0.1496371E+02 -0.7756753E-01  0.5294685E+00 -0.4823456E-02  0.0000000E+00  0.2231326E+01
  0.6312500E+00  0.7101522E+01 -0.3323480E+01 -0.1731512E+00 -0.1499235E+02 -0.7619617E-01  0.5279613E+00 -0.4823456E-02  0.0000000E+00  0.2233828E+01
  0.6375000E+00  0.6798418E+01 -0.3339453E+01 -0.1843750E+00 -0.1497035E+02 -0.7273012E-01  0.5230635E+00 -0.7717530E-02  0.0000000E+00  0.2235636E+01
  0.6437500E+00  0.6451116E+01 -0.3352490E+01 -0.2183580E+00 -0.1489469E+02 -0.6725975E-01  0.5149105E+00 -0.1205864E-01  0.0000000E+00  0.2236722E+01
  0.6500000E+00  0.6069089E+01 -0.3360178E+01 -0.2686194E+00 -0.1479220E+02 -0.6011654E-01  0.5055215E+00 -0.1591741E-01  0.0000000E+00  0.2237535E+01
  0.6562500E+00  0.5658652E+01 -0.3361688E+01 -0.3177519E+00 -0.1470569E+02 -0.5185802E-01  0.4984833E+00 -0.1832913E-01  0.0000000E+00  0.2238168E+01
  0.6625000E+00  0.5220988E+01 -0.3357016E+01 -0.3424707E+00 -0.1466168E+02 -0.4118814E-01  0.4961020E+00 -0.1929382E-01  0.0000000E+00  0.2238439E+01
  0.6687500E+00  0.4753728E+01 -0.3345032E+01 -0.3261981E+00 -0.1466981E+02 -0.2807679E-01  0.4982873E+00 -0.1929382E-01  0.0000000E+00  0.2238198E+01
  0.6750000E+00  0.4256870E+01 -0.3327319E+01 -0.2717219E+00 -0.1471501E+02 -0.1347346E-01  0.5028088E+00 -0.1881136E-01  0.0000000E+00  0.2237655E+01
  0.6812500E+00  0.3733175E+01 -0.3309607E+01 -0.2043586E+00 -0.1478011E+02 -0.7840745E-03  0.5071344E+00 -0.1832852E-01  0.0000000E+00  0.2237204E+01
  0.6875000E+00  0.3190925E+01 -0.3302445E+01 -0.1632151E+00 -0.1484974E+02  0.8710369E-02  0.5101787E+00 -0.1929197E-01  0.0000000E+00  0.2236963E+01
  0.6937500E+00  0.2639587E+01 -0.3315933E+01 -0.1835562E+00 -0.1492480E+02  0.1493457E-01  0.5119718E+00 -0.2266642E-01  0.0000000E+00  0.2236782E+01
  0.7000000E+00  0.2086266E+01 -0.3350146E+01 -0.2720910E+00 -0.1499925E+02  0.1913938E-01  0.5130715E+00 -0.2893457E-01  0.0000000E+00  0.2236239E+01
  0.7062500E+00  0.1529384E+01 -0.3392496E+01 -0.4086272E+00 -0.1505501E+02  0.2087271E-01  0.5132972E+00 -0.3665012E-01  0.0000000E+00  0.2235155E+01
  0.7125000E+00  0.9618467E+00 -0.3420831E+01 -0.5545855E+00 -0.1505531E+02  0.1921531E-01  0.5121971E+00 -0.4436642E-01  0.0000000E+00  0.2233376E+01
  0.7187500E+00  0.3789214E+00 -0.3418120E+01 -0.6829883E+00 -0.1499019E+02  0.1415210E-01  0.5096506E+00 -0.5039525E-01  0.0000000E+00  0.2231236E+01
  0.7250000E+00 -0.2158387E+00 -0.3383610E+01 -0.7796685E+00 -0.1487987E+02  0.6964011E-02  0.5064863E+00 -0.5353044E-01  0.0000000E+00  0.2229004E+01
  0.7312500E+00 -0.8109933E+00 -0.3333050E+01 -0.8326435E+00 -0.1477528E+02 -0.4954942E-03  0.5040301E+00 -0.5256599E-01  0.0000000E+00  0.2227255E+01
  0.7375000E+00 -0.1394711E+01 -0.3289575E+01 -0.8244311E+00 -0.1470626E+02 -0.7955370E-02  0.5032917E+00 -0.4726081E-01  0.0000000E+00  0.2226109E+01
  0.7437500E+00 -0.1959493E+01 -0.3267123E+01 -0.7319731E+00 -0.1468126E+02 -0.1529513E-01  0.5042412E+00 -0.3930309E-01  0.0000000E+00  0.2225657E+01
  0.7500000E+00 -0.2503752E+01 -0.3266897E+01 -0.5683061E+00 -0.1468368E+02 -0.2299685E-01  0.5062608E+00 -0.3158673E-01  0.0000000E+00  0.2225536E+01
  0.7562500E+00 -0.3030241E+01 -0.3277898E+01 -0.3751009E+00 -0.1469997E+02 -0.3069858E-01  0.5085066E+00 -0.2700543E-01  0.0000000E+00  0.2225566E+01
  0.7625000E+00 -0.3538959E+01 -0.3287466E+01 -0.2210793E+00 -0.1471805E+02 -0.3931945E-01  0.5108579E+00 -0.2580018E-01  0.0000000E+00  0.2225536E+01
  0.7687500E+00 -0.4027150E+01 -0.3286182E+01 -0.1362318E+00 -0.1473372E+02 -0.4890463E-01  0.5131938E+00 -0.2676512E-01  0.0000000E+00  0.2225566E+01
  0.7750000E+00 -0.4486138E+01 -0.3272918E+01 -0.1154346E+00 -0.1473762E+02 -0.5880611E-01  0.5155297E+00 -0.2700642E-01  0.0000000E+00  0.2225717E+01
  0.7812500E+00 -0.4912770E+01 -0.3250086E+01 -0.1185253E+00 -0.1471652E+02 -0.6625080E-01  0.5173531E+00 -0.2531845E-01  0.0000000E+00  0.2226078E+01
  0.7875000E+00 -0.5308228E+01 -0.3221075E+01 -0.1180006E+00 -0.1464931E+02 -0.6946018E-01  0.5185283E+00 -0.2073679E-01  0.0000000E+00  0.2226500E+01
  0.7937500E+00 -0.5680407E+01 -0.3183099E+01 -0.9969383E-01 -0.1453628E+02 -0.6837401E-01  0.5190554E+00 -0.1470846E-01  0.0000000E+00  0.2226771E+01
  0.8000000E+00 -0.6032850E+01 -0.3136836E+01 -0.6812500E-01 -0.1440457E+02 -0.6469549E-01  0.5195522E+00 -0.8680246E-02  0.0000000E+00  0.2226741E+01
  0.8062500E+00 -0.6363584E+01 -0.3087182E+01 -0.3256112E-01 -0.1430841E+02 -0.5978141E-01  0.5206521E+00 -0.5063395E-02  0.0000000E+00  0.2226561E+01
  0.8125000E+00 -0.6663923E+01 -0.3047774E+01 -0.5961731E-02 -0.1428581E+02 -0.5357166E-01  0.5231537E+00 -0.4822222E-02  0.0000000E+00  0.2226712E+01
  0.8187500E+00 -0.6924010E+01 -0.3026598E+01  0.3685799E-02 -0.1433615E+02 -0.4605117E-01  0.5270119E+00 -0.7715555E-02  0.0000000E+00  0.2227498E+01
  0.8250000E+00 -0.7137137E+01 -0.3023730E+01 -0.3996301E-02 -0.1442236E+02 -0.3764179E-01  0.5315030E+00 -0.1205555E-01  0.0000000E+00  0.2228795E+01
  0.8312500E+00 -0.7302514E+01 -0.3031487E+01 -0.2245402E-01 -0.1449531E+02 -0.2985061E-01  0.5352254E+00 -0.1615451E-01  0.0000000E+00  0.2230002E+01
  0.8375000E+00 -0.7422898E+01 -0.3043767E+01 -0.4377624E-01 -0.1452577E+02 -0.2302432E-01  0.5375161E+00 -0.1928913E-01  0.0000000E+00  0.2230696E+01
  0.8437500E+00 -0.7499868E+01 -0.3059213E+01 -0.6321575E-01 -0.1450166E+02 -0.1716277E-01  0.5384655E+00 -0.2194179E-01  0.0000000E+00  0.2230878E+01
  0.8500000E+00 -0.7530660E+01 -0.3076922E+01 -0.7738118E-01 -0.1443806E+02 -0.1167796E-01  0.5390381E+00 -0.2435345E-01  0.0000000E+00  0.2230878E+01
  0.8562500E+00 -0.7510932E+01 -0.3094180E+01 -0.8310772E-01 -0.1435819E+02 -0.6840861E-02  0.5401534E+00 -0.2652401E-01  0.0000000E+00  0.2230968E+01
  0.8625000E+00 -0.7437127E+01 -0.3105109E+01 -0.7602562E-01 -0.1429460E+02 -0.2440428E-02  0.5427007E+00 -0.2724753E-01  0.0000000E+00  0.2231119E+01
  0.8687500E+00 -0.7309246E+01 -0.3107751E+01 -0.5696390E-01 -0.1426145E+02  0.1523214E-02  0.5466649E+00 -0.2652401E-01  0.0000000E+00  0.2231179E+01
  0.8750000E+00 -0.7129659E+01 -0.3104214E+01 -0.3217625E-01 -0.1425421E+02  0.5396487E-02  0.5510662E+00 -0.2435352E-01  0.0000000E+00  0.2230968E+01
  0.8812500E+00 -0.6904689E+01 -0.3100901E+01 -0.1243643E-01 -0.1425058E+02  0.8953153E-02  0.5538847E+00 -0.2218321E-01  0.0000000E+00  0.2230516E+01
  0.8875000E+00 -0.6640655E+01 -0.3102408E+01 -0.3620995E-02 -0.1423159E+02  0.1260019E-01  0.5535226E+00 -0.2049562E-01  0.0000000E+00  0.2229944E+01
  0.8937500E+00 -0.6342291E+01 -0.3110693E+01 -0.4825315E-02 -0.1419390E+02  0.1647334E-01  0.5499648E+00 -0.1953191E-01  0.0000000E+00  0.2229462E+01
  0.9000000E+00 -0.6008410E+01 -0.3123573E+01 -0.9946609E-02 -0.1414809E+02  0.2022618E-01  0.5450054E+00 -0.1880950E-01  0.0000000E+00  0.2229221E+01
  0.9062500E+00 -0.5635458E+01 -0.3137508E+01 -0.1416327E-01 -0.1411222E+02  0.2212550E-01  0.5412368E+00 -0.1808673E-01  0.0000000E+00  0.2229342E+01
  0.9125000E+00 -0.5220664E+01 -0.3149034E+01 -0.1694907E-01 -0.1409534E+02  0.2039291E-01  0.5402871E+00 -0.1832790E-01  0.0000000E+00  0.2229914E+01
  0.9187500E+00 -0.4767577E+01 -0.3157171E+01 -0.1981204E-01 -0.1409835E+02  0.1486241E-01  0.5421258E+00 -0.1977419E-01  0.0000000E+00  0.2230848E+01
  0.9250000E+00 -0.4287252E+01 -0.3162598E+01 -0.2373210E-01 -0.1411250E+02  0.7131488E-02  0.5452756E+00 -0.2242605E-01  0.0000000E+00  0.2231902E+01
  0.9312500E+00 -0.3792726E+01 -0.3165388E+01 -0.2622191E-01 -0.1413088E+02 -0.3735124E-03  0.5479883E+00 -0.2363117E-01  0.0000000E+00  0.2232715E+01
  0.9375000E+00 -0.3291903E+01 -0.3163733E+01 -0.2313549E-01 -0.1414926E+02 -0.6778389E-02  0.5492845E+00 -0.2218413E-01  0.0000000E+00  0.2233227E+01
  0.9437500E+00 -0.2781229E+01 -0.3153864E+01 -0.1055278E-01 -0.1416825E+02 -0.1208308E-01  0.5491191E+00 -0.1784376E-01  0.0000000E+00  0.2233559E+01
  0.9500000E+00 -0.2253584E+01 -0.3135781E+01  0.1032130E-01 -0.1418906E+02 -0.1695074E-01  0.5478839E+00 -0.1374494E-01  0.0000000E+00  0.2233920E+01
  0.9562500E+00 -0.1703428E+01 -0.3113251E+01  0.3285524E-01 -0.1421197E+02 -0.2124580E-01  0.5457143E+00 -0.1205772E-01  0.0000000E+00  0.2234282E+01
  0.9625000E+00 -0.1134705E+01 -0.3094865E+01  0.4687469E-01 -0.1423639E+02 -0.2514925E-01  0.5422934E+00 -0.1350537E-01  0.0000000E+00  0.2234583E+01
  0.9687500E+00 -0.5529499E+00 -0.3085144E+01  0.4642500E-01 -0.1426081E+02 -0.2873648E-01  0.5377569E+00 -0.1615852E-01  0.0000000E+00  0.2234794E+01
  0.9750000E+00  0.3393123E-01 -0.3084315E+01  0.3384074E-01 -0.1428401E+02 -0.3229382E-01  0.5326322E+00 -0.1808796E-01  0.0000000E+00  0.2235035E+01
  0.9812500E+00  0.6235687E+00 -0.3084240E+01  0.1695895E-01 -0.1429967E+02 -0.3564037E-01  0.5278844E+00 -0.1808796E-01  0.0000000E+00  0.2235276E+01
  0.9875000E+00  0.1212018E+01 -0.3074972E+01  0.2487035E-02 -0.1429908E+02 -0.3882123E-01  0.5235586E+00 -0.1591741E-01  0.0000000E+00  0.2235426E+01
  0.9937500E+00  0.1797706E+01 -0.3045960E+01 -0.1213550E-01 -0.1426834E+02 -0.4180611E-01  0.5195949E+00 -0.1205864E-01  0.0000000E+00  0.2235246E+01
  0.1000000E+01  0.2373923E+01 -0.2998486E+01 -0.3225803E-01 -0.1420748E+02 -0.4453450E-01  0.5160534E+00 -0.7958641E-02  0.0000000E+00  0.2234703E+01
  0.1006250E+01  0.2936322E+01 -0.2949277E+01 -0.6330525E-01 -0.1413727E+02 -0.4658426E-01  0.5139285E+00 -0.6029012E-02  0.0000000E+00  0.2233769E+01
  0.1012500E+01  0.3479768E+01 -0.2929153E+01 -0.1027148E+00 -0.1410262E+02 -0.4774426E-01  0.5140342E+00 -0.8440123E-02  0.0000000E+00  0.2232502E+01
  0.1018750E+01  0.4006239E+01 -0.2963813E+01 -0.1460411E+00 -0.1414422E+02 -0.4816531E-01  0.5163098E+00 -0.1519197E-01  0.0000000E+00  0.2230934E+01
  0.1025000E+01  0.4518507E+01 -0.3051372E+01 -0.1862772E+00 -0.1426207E+02 -0.4792308E-01  0.5195951E+00 -0.2387308E-01  0.0000000E+00  0.2229305E+01
  0.1031250E+01  0.5020523E+01 -0.3161916E+01 -0.2162661E+00 -0.1441850E+02 -0.4671666E-01  0.5222626E+00 -0.3062518E-01  0.0000000E+00  0.2228038E+01
  0.1037500E+01  0.5507938E+01 -0.3252266E+01 -0.2295278E+00 -0.1455624E+02 -0.4368740E-01  0.5231974E+00 -0.3303691E-01  0.0000000E+00  0.2227434E+01
  0.1043750E+01  0.5969298E+01 -0.3299815E+01 -0.2229722E+00 -0.1465419E+02 -0.3888049E-01  0.5222490E+00 -0.3110827E-01  0.0000000E+00  0.2227434E+01
  0.1050000E+01  0.6388417E+01 -0.3306446E+01 -0.2014960E+00 -0.1471416E+02 -0.3264222E-01  0.5200952E+00 -0.2700944E-01  0.0000000E+00  0.2227614E+01
  0.1056250E+01  0.6752281E+01 -0.3293635E+01 -0.1742914E+00 -0.1476087E+02 -0.2583111E-01  0.5176399E+00 -0.2315166E-01  0.0000000E+00  0.2227584E+01
  0.1062500E+01  0.7055768E+01 -0.3280222E+01 -0.1523599E+00 -0.1480427E+02 -0.1776876E-01  0.5152596E+00 -0.2074055E-01  0.0000000E+00  0.2227223E+01
  0.1068750E+01  0.7302039E+01 -0.3276604E+01 -0.1412784E+00 -0.1485491E+02 -0.8470246E-02  0.5130746E+00 -0.1977611E-01  0.0000000E+00  0.2226681E+01
  0.1075000E+01  0.7499377E+01 -0.3283233E+01 -0.1411988E+00 -0.1491128E+02  0.1566854E-02  0.5109648E+00 -0.1953500E-01  0.0000000E+00  0.2226229E+01
  0.1081250E+01  0.7655673E+01 -0.3295062E+01 -0.1469985E+00 -0.1496946E+02  0.9946114E-02  0.5090808E+00 -0.1953500E-01  0.0000000E+00  0.2226018E+01
  0.1087500E+01  0.7773289E+01 -0.3305534E+01 -0.1523491E+00 -0.1501678E+02  0.1558229E-01  0.5073625E+00 -0.1953500E-01  0.0000000E+00  0.2226048E+01
  0.1093750E+01  0.7849463E+01 -0.3309905E+01 -0.1519762E+00 -0.1504813E+02  0.1844525E-01  0.5058401E+00 -0.1953500E-01  0.0000000E+00  0.2226138E+01
  0.1100000E+01  0.7878668E+01 -0.3307795E+01 -0.1446732E+00 -0.1506561E+02  0.1995173E-01  0.5043175E+00 -0.1977611E-01  0.0000000E+00  0.2226108E+01
  0.1106250E+01  0.7856169E+01 -0.3305912E+01 -0.1370685E+00 -0.1508067E+02  0.2026772E-01  0.5027197E+00 -0.2074055E-01  0.0000000E+00  0.2225898E+01
  0.1112500E+01  0.7780389E+01 -0.3316160E+01 -0.1425728E+00 -0.1510478E+02  0.1857957E-01  0.5007002E+00 -0.2315166E-01  0.0000000E+00  0.2225536E+01
  0.1118750E+01  0.7650543E+01 -0.3352705E+01 -0.1763309E+00 -0.1514999E+02  0.1318438E-01  0.4982891E+00 -0.2700944E-01  0.0000000E+00  0.2225144E+01
  0.1125000E+01  0.7467025E+01 -0.3415322E+01 -0.2372130E+00 -0.1521600E+02  0.4112286E-02  0.4956219E+00 -0.3110827E-01  0.0000000E+00  0.2224753E+01
  0.1131250E+01  0.7225098E+01 -0.3485249E+01 -0.3023136E+00 -0.1528834E+02 -0.6979011E-02  0.4932258E+00 -0.3303691E-01  0.0000000E+00  0.2224452E+01
  0.1137500E+01  0.6922390E+01 -0.3526392E+01 -0.3309438E+00 -0.1533808E+02 -0.1700000E-01  0.4910859E+00 -0.3062518E-01  0.0000000E+00  0.2224241E+01
  0.1143750E+01  0.6560482E+01 -0.3512453E+01 -0.2946210E+00 -0.1534410E+02 -0.2420259E-01  0.4891718E+00 -0.2411426E-01  0.0000000E+00  0.2224180E+01
  0.1150000E+01  0.6153975E+01 -0.3445394E+01 -0.1996747E+00 -0.1531005E+02 -0.2857191E-01  0.4871823E+00 -0.1639778E-01  0.0000000E+00  0.2224241E+01
  0.1156250E+01  0.5719446E+01 -0.3359497E+01 -0.9191913E-01 -0.1526393E+02 -0.3166062E-01  0.4852382E+00 -0.1205741E-01  0.0000000E+00  0.2224452E+01
  0.1162500E+01  0.5269528E+01 -0.3300651E+01 -0.3148580E-01 -0.1524283E+02 -0.3521704E-01  0.4831132E+00 -0.1350444E-01  0.0000000E+00  0.2224753E+01
  0.1168750E+01  0.4804224E+01 -0.3296887E+01 -0.5597531E-01 -0.1526001E+02 -0.3988913E-01  0.4808527E+00 -0.2025648E-01  0.0000000E+00  0.2225144E+01
  0.1175000E+01  0.4320376E+01 -0.3343607E+01 -0.1558929E+00 -0.1530342E+02 -0.4511901E-01  0.4784416E+00 -0.2893740E-01  0.0000000E+00  0.2225506E+01
  0.1181250E+01  0.3816401E+01 -0.3409012E+01 -0.2819574E+00 -0.1533989E+02 -0.4905284E-01  0.4764977E+00 -0.3665358E-01  0.0000000E+00  0.2225777E+01
  0.1187500E+01  0.3294662E+01 -0.3455878E+01 -0.3738117E+00 -0.1534683E+02 -0.5033432E-01  0.4753523E+00 -0.4147604E-01  0.0000000E+00  0.2225777E+01
  0.1193750E+01  0.2755157E+01 -0.3463710E+01 -0.3982259E+00 -0.1532121E+02 -0.4879778E-01  0.4751864E+00 -0.4340500E-01  0.0000000E+00  0.2225506E+01
  0.1200000E+01  0.2195524E+01 -0.3435448E+01 -0.3597219E+00 -0.1527872E+02 -0.4524191E-01  0.4756985E+00 -0.4292277E-01  0.0000000E+00  0.2225084E+01
  0.1206250E+01  0.1614977E+01 -0.3390835E+01 -0.2910778E+00 -0.1524255E+02 -0.4026932E-01  0.4767832E+00 -0.4123493E-01  0.0000000E+00  0.2224874E+01
  0.1212500E+01  0.1018645E+01 -0.3350294E+01 -0.2259000E+00 -0.1522809E+02 -0.3326191E-01  0.4785009E+00 -0.3906475E-01  0.0000000E+00  0.2225176E+01