TITLE = "PITCH AND HEAVE TRANSFER FUNCTION DATA FOR MODEL 5512 WO BILGE KEELS"
VARIABLES = f, fe, xa, xph, ya, yph, za, zph, rolla, rollph, pitcha, pitchph, yawa, yawph, U_f_e, U_TF_x5, U_gamma_x5, U_TF_x3, U_gamma_x3
ZONE T="Fr=0.000,  Ak=0.050", i=    6, j=  1, k=  1, F=POINT
  0.1012200E+01  0.1010600E+01  0.0000000E+00  0.0000000E+00  0.0000000E+00  0.0000000E+00  0.3247863E+00  0.7772129E+02  0.0000000E+00  0.0000000E+00  0.8225139E-01 -0.1069639E+02  0.0000000E+00  0.0000000E+00  0.0000000E+00  0.0000000E+00  0.0000000E+00  0.0000000E+00  0.0000000E+00
  0.9480000E+00  0.9468000E+00  0.0000000E+00  0.0000000E+00  0.0000000E+00  0.0000000E+00  0.1365767E+00  0.1463201E+03  0.0000000E+00  0.0000000E+00  0.5706692E-01 -0.5694800E+02  0.0000000E+00  0.0000000E+00  0.0000000E+00  0.0000000E+00  0.0000000E+00  0.0000000E+00  0.0000000E+00
  0.8494000E+00  0.8478000E+00  0.0000000E+00  0.0000000E+00  0.0000000E+00  0.0000000E+00  0.2134937E+00  0.9594592E+02  0.0000000E+00  0.0000000E+00  0.1298259E+00 -0.7851138E+02  0.0000000E+00  0.0000000E+00  0.0000000E+00  0.0000000E+00  0.0000000E+00  0.0000000E+00  0.0000000E+00
  0.7157000E+00  0.7158000E+00  0.0000000E+00  0.0000000E+00  0.0000000E+00  0.0000000E+00  0.2884815E+00  0.3873952E+02  0.0000000E+00  0.0000000E+00  0.4119937E+00 -0.1154990E+03  0.0000000E+00  0.0000000E+00  0.0000000E+00  0.0000000E+00  0.0000000E+00  0.0000000E+00  0.0000000E+00
  0.6506000E+00  0.6498000E+00  0.0000000E+00  0.0000000E+00  0.0000000E+00  0.0000000E+00  0.4825102E+00  0.1537253E+02  0.0000000E+00  0.0000000E+00  0.7095961E+00 -0.1079230E+03  0.0000000E+00  0.0000000E+00  0.0000000E+00  0.0000000E+00  0.0000000E+00  0.0000000E+00  0.0000000E+00
  0.5844000E+00  0.5838000E+00  0.0000000E+00  0.0000000E+00  0.0000000E+00  0.0000000E+00  0.6075847E+00  0.1093161E+02  0.0000000E+00  0.0000000E+00  0.7882427E+00 -0.1002132E+03  0.0000000E+00  0.0000000E+00  0.0000000E+00  0.0000000E+00  0.0000000E+00  0.0000000E+00  0.0000000E+00
