TITLE = "PITCH AND HEAVE HARMONIC ANALYSIS DATA FOR MODEL 5512 WO BILGE KEELS"
VARIABLES = f, fe, lambda, Ak, wave, x, y, z, roll, pitch, yaw, visibility, Uc
ZONE T="Amp 0, Fr=0.340,  Ak=0.025", i=      7, j=  1, k=  1, F=POINT
  0.7382000E+00  0.1389000E+01  0.9414114E+00  0.2452649E-01 -0.1161757E+01  0.0000000E+00  0.0000000E+00 -0.1754283E+02  0.0000000E+00 -0.1534728E+00  0.0000000E+00  0.0000000E+00  0.1867420E+01
  0.7157000E+00  0.1327400E+01  0.9990230E+00  0.2517742E-01 -0.1652939E+01  0.0000000E+00  0.0000000E+00 -0.1785044E+02  0.0000000E+00 -0.1121254E+00  0.0000000E+00  0.0000000E+00  0.1862640E+01
  0.6645000E+00  0.1193200E+01  0.1153184E+01  0.2566177E-01 -0.2933621E+00  0.0000000E+00  0.0000000E+00 -0.1604332E+02  0.0000000E+00 -0.6055247E-01  0.0000000E+00  0.0000000E+00  0.1858330E+01
  0.6277000E+00  0.1098600E+01  0.1293030E+01  0.2481405E-01  0.1268950E+01  0.0000000E+00  0.0000000E+00 -0.1520974E+02  0.0000000E+00 -0.3559360E-01  0.0000000E+00  0.0000000E+00  0.1855890E+01
  0.5844000E+00  0.9930000E+00  0.1491586E+01  0.2365575E-01 -0.1917877E+01  0.0000000E+00  0.0000000E+00 -0.1717414E+02  0.0000000E+00 -0.5976143E-01  0.0000000E+00  0.0000000E+00  0.1857640E+01
  0.4999000E+00  0.7994000E+00  0.2035347E+01  0.1902240E-01 -0.1702530E+01  0.0000000E+00  0.0000000E+00 -0.1781073E+02  0.0000000E+00 -0.1246764E+00  0.0000000E+00  0.0000000E+00  0.1858020E+01
  0.4033000E+00  0.6080000E+00  0.2977005E+01  0.1838426E-01 -0.2199044E+01  0.0000000E+00  0.0000000E+00 -0.1612789E+02  0.0000000E+00 -0.1850745E+00  0.0000000E+00  0.0000000E+00  0.1857430E+01
ZONE T="Amp 1, Fr=0.340,  Ak=0.025", i=      7, j=  1, k=  1, F=POINT
  0.7382000E+00  0.1389000E+01  0.9414114E+00  0.2452649E-01  0.1120082E+02  0.0000000E+00  0.0000000E+00  0.5585432E+01  0.0000000E+00  0.5219901E+00  0.0000000E+00  0.0000000E+00  0.1867420E+01
  0.7157000E+00  0.1327400E+01  0.9990230E+00  0.2517742E-01  0.1220174E+02  0.0000000E+00  0.0000000E+00  0.8073166E+01  0.0000000E+00  0.6864715E+00  0.0000000E+00  0.0000000E+00  0.1862640E+01
  0.6645000E+00  0.1193200E+01  0.1153184E+01  0.2566177E-01  0.1435557E+02  0.0000000E+00  0.0000000E+00  0.1462768E+02  0.0000000E+00  0.1120059E+01  0.0000000E+00  0.0000000E+00  0.1858330E+01
  0.6277000E+00  0.1098600E+01  0.1293030E+01  0.2481405E-01  0.1556472E+02  0.0000000E+00  0.0000000E+00  0.1792073E+02  0.0000000E+00  0.1392522E+01  0.0000000E+00  0.0000000E+00  0.1855890E+01
  0.5844000E+00  0.9930000E+00  0.1491586E+01  0.2365575E-01  0.1711670E+02  0.0000000E+00  0.0000000E+00  0.1912219E+02  0.0000000E+00  0.1507851E+01  0.0000000E+00  0.0000000E+00  0.1857640E+01
  0.4999000E+00  0.7994000E+00  0.2035347E+01  0.1902240E-01  0.1878188E+02  0.0000000E+00  0.0000000E+00  0.1939104E+02  0.0000000E+00  0.1201328E+01  0.0000000E+00  0.0000000E+00  0.1858020E+01
  0.4033000E+00  0.6080000E+00  0.2977005E+01  0.1838426E-01  0.2654978E+02  0.0000000E+00  0.0000000E+00  0.2689787E+02  0.0000000E+00  0.1055062E+01  0.0000000E+00  0.0000000E+00  0.1857430E+01
ZONE T="Amp 2, Fr=0.340,  Ak=0.025", i=      7, j=  1, k=  1, F=POINT
  0.7382000E+00  0.1389000E+01  0.9414114E+00  0.2452649E-01  0.1953432E+00  0.0000000E+00  0.0000000E+00  0.1177739E+00  0.0000000E+00  0.3856794E-02  0.0000000E+00  0.0000000E+00  0.1867420E+01
  0.7157000E+00  0.1327400E+01  0.9990230E+00  0.2517742E-01  0.2476939E+00  0.0000000E+00  0.0000000E+00  0.1517440E+00  0.0000000E+00  0.5829311E-02  0.0000000E+00  0.0000000E+00  0.1862640E+01
  0.6645000E+00  0.1193200E+01  0.1153184E+01  0.2566177E-01  0.2059140E+00  0.0000000E+00  0.0000000E+00  0.1939251E+00  0.0000000E+00  0.1210188E-01  0.0000000E+00  0.0000000E+00  0.1858330E+01
  0.6277000E+00  0.1098600E+01  0.1293030E+01  0.2481405E-01  0.2578918E+00  0.0000000E+00  0.0000000E+00  0.8694626E-01  0.0000000E+00  0.9723868E-02  0.0000000E+00  0.0000000E+00  0.1855890E+01
  0.5844000E+00  0.9930000E+00  0.1491586E+01  0.2365575E-01  0.3051929E+00  0.0000000E+00  0.0000000E+00  0.1109082E+00  0.0000000E+00  0.8251556E-02  0.0000000E+00  0.0000000E+00  0.1857640E+01
  0.4999000E+00  0.7994000E+00  0.2035347E+01  0.1902240E-01  0.3288116E+00  0.0000000E+00  0.0000000E+00  0.1946405E+00  0.0000000E+00  0.9569458E-02  0.0000000E+00  0.0000000E+00  0.1858020E+01
  0.4033000E+00  0.6080000E+00  0.2977005E+01  0.1838426E-01  0.4360773E+00  0.0000000E+00  0.0000000E+00  0.5085846E+00  0.0000000E+00  0.4433168E-01  0.0000000E+00  0.0000000E+00  0.1857430E+01
ZONE T="Amp 3, Fr=0.340,  Ak=0.025", i=      7, j=  1, k=  1, F=POINT
  0.7382000E+00  0.1389000E+01  0.9414114E+00  0.2452649E-01  0.1186457E-01  0.0000000E+00  0.0000000E+00  0.2564542E-01  0.0000000E+00  0.2343299E-02  0.0000000E+00  0.0000000E+00  0.1867420E+01
  0.7157000E+00  0.1327400E+01  0.9990230E+00  0.2517742E-01  0.5312900E-01  0.0000000E+00  0.0000000E+00  0.2259349E-01  0.0000000E+00  0.1513756E-02  0.0000000E+00  0.0000000E+00  0.1862640E+01
  0.6645000E+00  0.1193200E+01  0.1153184E+01  0.2566177E-01  0.7880066E-02  0.0000000E+00  0.0000000E+00  0.6610236E-01  0.0000000E+00  0.3694712E-02  0.0000000E+00  0.0000000E+00  0.1858330E+01
  0.6277000E+00  0.1098600E+01  0.1293030E+01  0.2481405E-01  0.4098810E-01  0.0000000E+00  0.0000000E+00  0.6650049E-01  0.0000000E+00  0.1312215E-02  0.0000000E+00  0.0000000E+00  0.1855890E+01
  0.5844000E+00  0.9930000E+00  0.1491586E+01  0.2365575E-01  0.3607937E-01  0.0000000E+00  0.0000000E+00  0.1023221E-01  0.0000000E+00  0.2006590E-02  0.0000000E+00  0.0000000E+00  0.1857640E+01
  0.4999000E+00  0.7994000E+00  0.2035347E+01  0.1902240E-01  0.4833841E-01  0.0000000E+00  0.0000000E+00  0.4276384E-01  0.0000000E+00  0.4024752E-02  0.0000000E+00  0.0000000E+00  0.1858020E+01
  0.4033000E+00  0.6080000E+00  0.2977005E+01  0.1838426E-01  0.6907644E-01  0.0000000E+00  0.0000000E+00  0.1893494E+00  0.0000000E+00  0.1049234E-01  0.0000000E+00  0.0000000E+00  0.1857430E+01
ZONE T="Amp 4, Fr=0.340,  Ak=0.025", i=      7, j=  1, k=  1, F=POINT
  0.7382000E+00  0.1389000E+01  0.9414114E+00  0.2452649E-01  0.2374467E-01  0.0000000E+00  0.0000000E+00  0.2130259E-01  0.0000000E+00  0.1292017E-02  0.0000000E+00  0.0000000E+00  0.1867420E+01
  0.7157000E+00  0.1327400E+01  0.9990230E+00  0.2517742E-01  0.2642734E-01  0.0000000E+00  0.0000000E+00  0.4098463E-01  0.0000000E+00  0.1020715E-02  0.0000000E+00  0.0000000E+00  0.1862640E+01
  0.6645000E+00  0.1193200E+01  0.1153184E+01  0.2566177E-01  0.2910343E-01  0.0000000E+00  0.0000000E+00  0.1232090E-01  0.0000000E+00  0.2134938E-02  0.0000000E+00  0.0000000E+00  0.1858330E+01
  0.6277000E+00  0.1098600E+01  0.1293030E+01  0.2481405E-01  0.5216593E-01  0.0000000E+00  0.0000000E+00  0.2494844E-01  0.0000000E+00  0.5843872E-03  0.0000000E+00  0.0000000E+00  0.1855890E+01
  0.5844000E+00  0.9930000E+00  0.1491586E+01  0.2365575E-01  0.4084148E-01  0.0000000E+00  0.0000000E+00  0.2694667E-01  0.0000000E+00  0.3421840E-02  0.0000000E+00  0.0000000E+00  0.1857640E+01
  0.4999000E+00  0.7994000E+00  0.2035347E+01  0.1902240E-01  0.2748740E-01  0.0000000E+00  0.0000000E+00  0.4972717E-01  0.0000000E+00  0.9571621E-03  0.0000000E+00  0.0000000E+00  0.1858020E+01
  0.4033000E+00  0.6080000E+00  0.2977005E+01  0.1838426E-01  0.5375542E-01  0.0000000E+00  0.0000000E+00  0.1528196E+00  0.0000000E+00  0.4607952E-02  0.0000000E+00  0.0000000E+00  0.1857430E+01
ZONE T="Amp 5, Fr=0.340,  Ak=0.025", i=      7, j=  1, k=  1, F=POINT
  0.7382000E+00  0.1389000E+01  0.9414114E+00  0.2452649E-01  0.2871153E-01  0.0000000E+00  0.0000000E+00  0.2090291E-01  0.0000000E+00  0.1385088E-02  0.0000000E+00  0.0000000E+00  0.1867420E+01
  0.7157000E+00  0.1327400E+01  0.9990230E+00  0.2517742E-01  0.1051831E-01  0.0000000E+00  0.0000000E+00  0.2599448E-01  0.0000000E+00  0.5795123E-03  0.0000000E+00  0.0000000E+00  0.1862640E+01
  0.6645000E+00  0.1193200E+01  0.1153184E+01  0.2566177E-01  0.2678255E-01  0.0000000E+00  0.0000000E+00  0.3443836E-01  0.0000000E+00  0.2510395E-02  0.0000000E+00  0.0000000E+00  0.1858330E+01
  0.6277000E+00  0.1098600E+01  0.1293030E+01  0.2481405E-01  0.1075436E-01  0.0000000E+00  0.0000000E+00  0.8643958E-01  0.0000000E+00  0.1765036E-02  0.0000000E+00  0.0000000E+00  0.1855890E+01
  0.5844000E+00  0.9930000E+00  0.1491586E+01  0.2365575E-01  0.3190633E-01  0.0000000E+00  0.0000000E+00  0.4647541E-01  0.0000000E+00  0.2853545E-02  0.0000000E+00  0.0000000E+00  0.1857640E+01
  0.4999000E+00  0.7994000E+00  0.2035347E+01  0.1902240E-01  0.5668666E-01  0.0000000E+00  0.0000000E+00  0.1344172E-01  0.0000000E+00  0.2014856E-02  0.0000000E+00  0.0000000E+00  0.1858020E+01
  0.4033000E+00  0.6080000E+00  0.2977005E+01  0.1838426E-01  0.1440298E+00  0.0000000E+00  0.0000000E+00  0.1275752E+00  0.0000000E+00  0.5574296E-02  0.0000000E+00  0.0000000E+00  0.1857430E+01
ZONE T="Amp 6, Fr=0.340,  Ak=0.025", i=      7, j=  1, k=  1, F=POINT
  0.7382000E+00  0.1389000E+01  0.9414114E+00  0.2452649E-01  0.2507862E-01  0.0000000E+00  0.0000000E+00  0.2129258E-01  0.0000000E+00  0.9396895E-03  0.0000000E+00  0.0000000E+00  0.1867420E+01
  0.7157000E+00  0.1327400E+01  0.9990230E+00  0.2517742E-01  0.1200196E-01  0.0000000E+00  0.0000000E+00  0.2813088E-01  0.0000000E+00  0.1170754E-02  0.0000000E+00  0.0000000E+00  0.1862640E+01
  0.6645000E+00  0.1193200E+01  0.1153184E+01  0.2566177E-01  0.2029673E-01  0.0000000E+00  0.0000000E+00  0.4129054E-01  0.0000000E+00  0.2015546E-02  0.0000000E+00  0.0000000E+00  0.1858330E+01
  0.6277000E+00  0.1098600E+01  0.1293030E+01  0.2481405E-01  0.3862325E-01  0.0000000E+00  0.0000000E+00  0.4527673E-01  0.0000000E+00  0.3122454E-02  0.0000000E+00  0.0000000E+00  0.1855890E+01
  0.5844000E+00  0.9930000E+00  0.1491586E+01  0.2365575E-01  0.1813460E-01  0.0000000E+00  0.0000000E+00  0.3158965E-01  0.0000000E+00  0.2147943E-02  0.0000000E+00  0.0000000E+00  0.1857640E+01
  0.4999000E+00  0.7994000E+00  0.2035347E+01  0.1902240E-01  0.1599365E-01  0.0000000E+00  0.0000000E+00  0.2159428E-01  0.0000000E+00  0.2579190E-02  0.0000000E+00  0.0000000E+00  0.1858020E+01
  0.4033000E+00  0.6080000E+00  0.2977005E+01  0.1838426E-01  0.4002945E-01  0.0000000E+00  0.0000000E+00  0.1007573E+00  0.0000000E+00  0.3367198E-02  0.0000000E+00  0.0000000E+00  0.1857430E+01
ZONE T="Amp 7, Fr=0.340,  Ak=0.025", i=      7, j=  1, k=  1, F=POINT
  0.7382000E+00  0.1389000E+01  0.9414114E+00  0.2452649E-01  0.1669327E-01  0.0000000E+00  0.0000000E+00  0.2944069E-01  0.0000000E+00  0.5916118E-03  0.0000000E+00  0.0000000E+00  0.1867420E+01
  0.7157000E+00  0.1327400E+01  0.9990230E+00  0.2517742E-01  0.1195293E-01  0.0000000E+00  0.0000000E+00  0.3198666E-01  0.0000000E+00  0.5444607E-03  0.0000000E+00  0.0000000E+00  0.1862640E+01
  0.6645000E+00  0.1193200E+01  0.1153184E+01  0.2566177E-01  0.1332746E-01  0.0000000E+00  0.0000000E+00  0.4819663E-01  0.0000000E+00  0.3354519E-03  0.0000000E+00  0.0000000E+00  0.1858330E+01
  0.6277000E+00  0.1098600E+01  0.1293030E+01  0.2481405E-01  0.2851531E-01  0.0000000E+00  0.0000000E+00  0.2415798E-01  0.0000000E+00  0.2990087E-02  0.0000000E+00  0.0000000E+00  0.1855890E+01
  0.5844000E+00  0.9930000E+00  0.1491586E+01  0.2365575E-01  0.3512589E-02  0.0000000E+00  0.0000000E+00  0.3142984E-01  0.0000000E+00  0.2184095E-02  0.0000000E+00  0.0000000E+00  0.1857640E+01
  0.4999000E+00  0.7994000E+00  0.2035347E+01  0.1902240E-01  0.2330523E-01  0.0000000E+00  0.0000000E+00  0.1597393E-01  0.0000000E+00  0.2161087E-02  0.0000000E+00  0.0000000E+00  0.1858020E+01
  0.4033000E+00  0.6080000E+00  0.2977005E+01  0.1838426E-01  0.5008827E-01  0.0000000E+00  0.0000000E+00  0.9141372E-01  0.0000000E+00  0.1400317E-02  0.0000000E+00  0.0000000E+00  0.1857430E+01
ZONE T="Amp 8, Fr=0.340,  Ak=0.025", i=      7, j=  1, k=  1, F=POINT
  0.7382000E+00  0.1389000E+01  0.9414114E+00  0.2452649E-01  0.1301409E-01  0.0000000E+00  0.0000000E+00  0.1436463E-01  0.0000000E+00  0.1187125E-02  0.0000000E+00  0.0000000E+00  0.1867420E+01
  0.7157000E+00  0.1327400E+01  0.9990230E+00  0.2517742E-01  0.1520275E-01  0.0000000E+00  0.0000000E+00  0.2689029E-01  0.0000000E+00  0.1432378E-02  0.0000000E+00  0.0000000E+00  0.1862640E+01
  0.6645000E+00  0.1193200E+01  0.1153184E+01  0.2566177E-01  0.1738506E-01  0.0000000E+00  0.0000000E+00  0.2583808E-01  0.0000000E+00  0.2404163E-02  0.0000000E+00  0.0000000E+00  0.1858330E+01
  0.6277000E+00  0.1098600E+01  0.1293030E+01  0.2481405E-01  0.3430687E-01  0.0000000E+00  0.0000000E+00  0.5292264E-01  0.0000000E+00  0.1263279E-03  0.0000000E+00  0.0000000E+00  0.1855890E+01
  0.5844000E+00  0.9930000E+00  0.1491586E+01  0.2365575E-01  0.1062235E-01  0.0000000E+00  0.0000000E+00  0.9466723E-02  0.0000000E+00  0.1882685E-02  0.0000000E+00  0.0000000E+00  0.1857640E+01
  0.4999000E+00  0.7994000E+00  0.2035347E+01  0.1902240E-01  0.1272491E-01  0.0000000E+00  0.0000000E+00  0.9262347E-02  0.0000000E+00  0.2641661E-02  0.0000000E+00  0.0000000E+00  0.1858020E+01
  0.4033000E+00  0.6080000E+00  0.2977005E+01  0.1838426E-01  0.7434231E-01  0.0000000E+00  0.0000000E+00  0.7973585E-01  0.0000000E+00  0.2620430E-02  0.0000000E+00  0.0000000E+00  0.1857430E+01
ZONE T="Amp 9, Fr=0.340,  Ak=0.025", i=      7, j=  1, k=  1, F=POINT
  0.7382000E+00  0.1389000E+01  0.9414114E+00  0.2452649E-01  0.1293750E-01  0.0000000E+00  0.0000000E+00  0.2344736E-01  0.0000000E+00  0.9103027E-03  0.0000000E+00  0.0000000E+00  0.1867420E+01
  0.7157000E+00  0.1327400E+01  0.9990230E+00  0.2517742E-01  0.8341809E-02  0.0000000E+00  0.0000000E+00  0.2370505E-01  0.0000000E+00  0.1301187E-02  0.0000000E+00  0.0000000E+00  0.1862640E+01
  0.6645000E+00  0.1193200E+01  0.1153184E+01  0.2566177E-01  0.1713347E-01  0.0000000E+00  0.0000000E+00  0.3234660E-01  0.0000000E+00  0.2747406E-02  0.0000000E+00  0.0000000E+00  0.1858330E+01
  0.6277000E+00  0.1098600E+01  0.1293030E+01  0.2481405E-01  0.2578811E-01  0.0000000E+00  0.0000000E+00  0.3846681E-01  0.0000000E+00  0.1507767E-02  0.0000000E+00  0.0000000E+00  0.1855890E+01
  0.5844000E+00  0.9930000E+00  0.1491586E+01  0.2365575E-01  0.1535957E-01  0.0000000E+00  0.0000000E+00  0.2874934E-01  0.0000000E+00  0.2594030E-02  0.0000000E+00  0.0000000E+00  0.1857640E+01
  0.4999000E+00  0.7994000E+00  0.2035347E+01  0.1902240E-01  0.2204941E-01  0.0000000E+00  0.0000000E+00  0.2554235E-01  0.0000000E+00  0.1578731E-02  0.0000000E+00  0.0000000E+00  0.1858020E+01
  0.4033000E+00  0.6080000E+00  0.2977005E+01  0.1838426E-01  0.4834870E-01  0.0000000E+00  0.0000000E+00  0.8051189E-01  0.0000000E+00  0.1122557E-02  0.0000000E+00  0.0000000E+00  0.1857430E+01
ZONE T="Amp10, Fr=0.340,  Ak=0.025", i=      7, j=  1, k=  1, F=POINT
  0.7382000E+00  0.1389000E+01  0.9414114E+00  0.2452649E-01  0.1587623E-01  0.0000000E+00  0.0000000E+00  0.2208541E-01  0.0000000E+00  0.1076730E-02  0.0000000E+00  0.0000000E+00  0.1867420E+01
  0.7157000E+00  0.1327400E+01  0.9990230E+00  0.2517742E-01  0.9822374E-02  0.0000000E+00  0.0000000E+00  0.2876646E-01  0.0000000E+00  0.6922758E-03  0.0000000E+00  0.0000000E+00  0.1862640E+01
  0.6645000E+00  0.1193200E+01  0.1153184E+01  0.2566177E-01  0.2138884E-01  0.0000000E+00  0.0000000E+00  0.7744017E-01  0.0000000E+00  0.4436268E-02  0.0000000E+00  0.0000000E+00  0.1858330E+01
  0.6277000E+00  0.1098600E+01  0.1293030E+01  0.2481405E-01  0.3039336E-01  0.0000000E+00  0.0000000E+00  0.5376364E-01  0.0000000E+00  0.9817019E-03  0.0000000E+00  0.0000000E+00  0.1855890E+01
  0.5844000E+00  0.9930000E+00  0.1491586E+01  0.2365575E-01  0.1309725E-01  0.0000000E+00  0.0000000E+00  0.2093880E-01  0.0000000E+00  0.1200835E-02  0.0000000E+00  0.0000000E+00  0.1857640E+01
  0.4999000E+00  0.7994000E+00  0.2035347E+01  0.1902240E-01  0.1444142E-01  0.0000000E+00  0.0000000E+00  0.8813963E-02  0.0000000E+00  0.1620510E-02  0.0000000E+00  0.0000000E+00  0.1858020E+01
  0.4033000E+00  0.6080000E+00  0.2977005E+01  0.1838426E-01  0.5766572E-01  0.0000000E+00  0.0000000E+00  0.5144303E-01  0.0000000E+00  0.1684337E-02  0.0000000E+00  0.0000000E+00  0.1857430E+01
ZONE T="Phs 0, Fr=0.340,  Ak=0.025", i=      7, j=  1, k=  1, F=POINT
  0.7382000E+00  0.1389000E+01  0.9414114E+00  0.2452649E-01 -0.1800000E+03  0.0000000E+00  0.0000000E+00 -0.1800000E+03  0.0000000E+00 -0.1800000E+03  0.0000000E+00  0.0000000E+00  0.1867420E+01
  0.7157000E+00  0.1327400E+01  0.9990230E+00  0.2517742E-01 -0.1800000E+03  0.0000000E+00  0.0000000E+00 -0.1800000E+03  0.0000000E+00 -0.1800000E+03  0.0000000E+00  0.0000000E+00  0.1862640E+01
  0.6645000E+00  0.1193200E+01  0.1153184E+01  0.2566177E-01 -0.1800000E+03  0.0000000E+00  0.0000000E+00 -0.1800000E+03  0.0000000E+00 -0.1800000E+03  0.0000000E+00  0.0000000E+00  0.1858330E+01
  0.6277000E+00  0.1098600E+01  0.1293030E+01  0.2481405E-01  0.0000000E+00  0.0000000E+00  0.0000000E+00 -0.1800000E+03  0.0000000E+00 -0.1800000E+03  0.0000000E+00  0.0000000E+00  0.1855890E+01
  0.5844000E+00  0.9930000E+00  0.1491586E+01  0.2365575E-01 -0.1800000E+03  0.0000000E+00  0.0000000E+00 -0.1800000E+03  0.0000000E+00 -0.1800000E+03  0.0000000E+00  0.0000000E+00  0.1857640E+01
  0.4999000E+00  0.7994000E+00  0.2035347E+01  0.1902240E-01 -0.1800000E+03  0.0000000E+00  0.0000000E+00 -0.1800000E+03  0.0000000E+00 -0.1800000E+03  0.0000000E+00  0.0000000E+00  0.1858020E+01
  0.4033000E+00  0.6080000E+00  0.2977005E+01  0.1838426E-01 -0.1800000E+03  0.0000000E+00  0.0000000E+00 -0.1800000E+03  0.0000000E+00 -0.1800000E+03  0.0000000E+00  0.0000000E+00  0.1857430E+01
ZONE T="Phs 1, Fr=0.340,  Ak=0.025", i=      7, j=  1, k=  1, F=POINT
  0.7382000E+00  0.1389000E+01  0.9414114E+00  0.2452649E-01  0.0000000E+00  0.0000000E+00  0.0000000E+00 -0.6344933E+02  0.0000000E+00  0.1583223E+03  0.0000000E+00  0.0000000E+00  0.1867420E+01
  0.7157000E+00  0.1327400E+01  0.9990230E+00  0.2517742E-01  0.0000000E+00  0.0000000E+00  0.0000000E+00 -0.5915938E+02  0.0000000E+00  0.1630712E+03  0.0000000E+00  0.0000000E+00  0.1862640E+01
  0.6645000E+00  0.1193200E+01  0.1153184E+01  0.2566177E-01  0.0000000E+00  0.0000000E+00  0.0000000E+00 -0.3706623E+02  0.0000000E+00 -0.1773410E+03  0.0000000E+00  0.0000000E+00  0.1858330E+01
  0.6277000E+00  0.1098600E+01  0.1293030E+01  0.2481405E-01  0.0000000E+00  0.0000000E+00  0.0000000E+00 -0.2081000E+02  0.0000000E+00 -0.1600146E+03  0.0000000E+00  0.0000000E+00  0.1855890E+01
  0.5844000E+00  0.9930000E+00  0.1491586E+01  0.2365575E-01  0.0000000E+00  0.0000000E+00  0.0000000E+00 -0.7416315E+01  0.0000000E+00 -0.1396575E+03  0.0000000E+00  0.0000000E+00  0.1857640E+01
  0.4999000E+00  0.7994000E+00  0.2035347E+01  0.1902240E-01  0.0000000E+00  0.0000000E+00  0.0000000E+00 -0.1185673E+01  0.0000000E+00 -0.1153625E+03  0.0000000E+00  0.0000000E+00  0.1858020E+01
  0.4033000E+00  0.6080000E+00  0.2977005E+01  0.1838426E-01 -0.2732076E-04  0.0000000E+00  0.0000000E+00  0.2314643E+01  0.0000000E+00 -0.1032289E+03  0.0000000E+00  0.0000000E+00  0.1857430E+01
ZONE T="Phs 2, Fr=0.340,  Ak=0.025", i=      7, j=  1, k=  1, F=POINT
  0.7382000E+00  0.1389000E+01  0.9414114E+00  0.2452649E-01  0.5708268E+02  0.0000000E+00  0.0000000E+00 -0.9970258E+02  0.0000000E+00 -0.1013107E+03  0.0000000E+00  0.0000000E+00  0.1867420E+01
  0.7157000E+00  0.1327400E+01  0.9990230E+00  0.2517742E-01  0.1261567E+03  0.0000000E+00  0.0000000E+00  0.2032374E+02  0.0000000E+00  0.5028822E+02  0.0000000E+00  0.0000000E+00  0.1862640E+01
  0.6645000E+00  0.1193200E+01  0.1153184E+01  0.2566177E-01 -0.1048124E+03  0.0000000E+00  0.0000000E+00 -0.1102787E+03  0.0000000E+00 -0.7489828E+02  0.0000000E+00  0.0000000E+00  0.1858330E+01
  0.6277000E+00  0.1098600E+01  0.1293030E+01  0.2481405E-01 -0.4609721E+02  0.0000000E+00  0.0000000E+00  0.8433112E+02  0.0000000E+00  0.7363234E+02  0.0000000E+00  0.0000000E+00  0.1855890E+01
  0.5844000E+00  0.9930000E+00  0.1491586E+01  0.2365575E-01 -0.9449786E+02  0.0000000E+00  0.0000000E+00  0.1029238E+02  0.0000000E+00  0.5800537E+02  0.0000000E+00  0.0000000E+00  0.1857640E+01
  0.4999000E+00  0.7994000E+00  0.2035347E+01  0.1902240E-01 -0.1278561E+03  0.0000000E+00  0.0000000E+00  0.1192492E+03  0.0000000E+00  0.1581940E+03  0.0000000E+00  0.0000000E+00  0.1858020E+01
  0.4033000E+00  0.6080000E+00  0.2977005E+01  0.1838426E-01 -0.6988653E+02  0.0000000E+00  0.0000000E+00  0.3135641E+02  0.0000000E+00  0.4593413E+02  0.0000000E+00  0.0000000E+00  0.1857430E+01
ZONE T="Phs 3, Fr=0.340,  Ak=0.025", i=      7, j=  1, k=  1, F=POINT
  0.7382000E+00  0.1389000E+01  0.9414114E+00  0.2452649E-01  0.8663295E+02  0.0000000E+00  0.0000000E+00 -0.1485563E+03  0.0000000E+00  0.1069666E+03  0.0000000E+00  0.0000000E+00  0.1867420E+01
  0.7157000E+00  0.1327400E+01  0.9990230E+00  0.2517742E-01  0.1755045E+03  0.0000000E+00  0.0000000E+00  0.1458270E+03  0.0000000E+00 -0.9596751E+02  0.0000000E+00  0.0000000E+00  0.1862640E+01
  0.6645000E+00  0.1193200E+01  0.1153184E+01  0.2566177E-01 -0.2003032E+02  0.0000000E+00  0.0000000E+00  0.1452446E+03  0.0000000E+00 -0.1729984E+03  0.0000000E+00  0.0000000E+00  0.1858330E+01
  0.6277000E+00  0.1098600E+01  0.1293030E+01  0.2481405E-01 -0.7988972E+02  0.0000000E+00  0.0000000E+00  0.1278660E+03  0.0000000E+00  0.7184952E+02  0.0000000E+00  0.0000000E+00  0.1855890E+01
  0.5844000E+00  0.9930000E+00  0.1491586E+01  0.2365575E-01  0.6069168E+02  0.0000000E+00  0.0000000E+00  0.7898711E+01  0.0000000E+00  0.1027575E+03  0.0000000E+00  0.0000000E+00  0.1857640E+01
  0.4999000E+00  0.7994000E+00  0.2035347E+01  0.1902240E-01 -0.1220464E+03  0.0000000E+00  0.0000000E+00 -0.1446536E+03  0.0000000E+00  0.4752786E+02  0.0000000E+00  0.0000000E+00  0.1858020E+01
  0.4033000E+00  0.6080000E+00  0.2977005E+01  0.1838426E-01 -0.1222835E+03  0.0000000E+00  0.0000000E+00  0.7619975E+02  0.0000000E+00  0.1033449E+03  0.0000000E+00  0.0000000E+00  0.1857430E+01
ZONE T="Phs 4, Fr=0.340,  Ak=0.025", i=      7, j=  1, k=  1, F=POINT
  0.7382000E+00  0.1389000E+01  0.9414114E+00  0.2452649E-01  0.1579871E+03  0.0000000E+00  0.0000000E+00 -0.1614626E+03  0.0000000E+00 -0.1773073E+03  0.0000000E+00  0.0000000E+00  0.1867420E+01
  0.7157000E+00  0.1327400E+01  0.9990230E+00  0.2517742E-01  0.1043615E+03  0.0000000E+00  0.0000000E+00 -0.1731239E+03  0.0000000E+00  0.1595490E+03  0.0000000E+00  0.0000000E+00  0.1862640E+01
  0.6645000E+00  0.1193200E+01  0.1153184E+01  0.2566177E-01  0.1592399E+03  0.0000000E+00  0.0000000E+00  0.1415850E+03  0.0000000E+00 -0.1133010E+03  0.0000000E+00  0.0000000E+00  0.1858330E+01
  0.6277000E+00  0.1098600E+01  0.1293030E+01  0.2481405E-01 -0.1720611E+03  0.0000000E+00  0.0000000E+00  0.1424809E+03  0.0000000E+00 -0.1065579E+03  0.0000000E+00  0.0000000E+00  0.1855890E+01
  0.5844000E+00  0.9930000E+00  0.1491586E+01  0.2365575E-01 -0.1881597E+02  0.0000000E+00  0.0000000E+00 -0.3949445E+02  0.0000000E+00  0.1398201E+03  0.0000000E+00  0.0000000E+00  0.1857640E+01
  0.4999000E+00  0.7994000E+00  0.2035347E+01  0.1902240E-01 -0.1285187E+03  0.0000000E+00  0.0000000E+00  0.8992645E+01  0.0000000E+00  0.1695371E+03  0.0000000E+00  0.0000000E+00  0.1858020E+01
  0.4033000E+00  0.6080000E+00  0.2977005E+01  0.1838426E-01  0.1465405E+03  0.0000000E+00  0.0000000E+00  0.6856267E+02  0.0000000E+00  0.9470045E+02  0.0000000E+00  0.0000000E+00  0.1857430E+01
ZONE T="Phs 5, Fr=0.340,  Ak=0.025", i=      7, j=  1, k=  1, F=POINT
  0.7382000E+00  0.1389000E+01  0.9414114E+00  0.2452649E-01  0.1582539E+03  0.0000000E+00  0.0000000E+00 -0.1787963E+03  0.0000000E+00  0.1343681E+03  0.0000000E+00  0.0000000E+00  0.1867420E+01
  0.7157000E+00  0.1327400E+01  0.9990230E+00  0.2517742E-01  0.1584651E+03  0.0000000E+00  0.0000000E+00  0.1727987E+03  0.0000000E+00  0.8081079E+02  0.0000000E+00  0.0000000E+00  0.1862640E+01
  0.6645000E+00  0.1193200E+01  0.1153184E+01  0.2566177E-01  0.1655971E+03  0.0000000E+00  0.0000000E+00  0.1634549E+03  0.0000000E+00  0.1591561E+03  0.0000000E+00  0.0000000E+00  0.1858330E+01
  0.6277000E+00  0.1098600E+01  0.1293030E+01  0.2481405E-01 -0.5606086E+02  0.0000000E+00  0.0000000E+00 -0.1638913E+03  0.0000000E+00  0.8581032E+02  0.0000000E+00  0.0000000E+00  0.1855890E+01
  0.5844000E+00  0.9930000E+00  0.1491586E+01  0.2365575E-01  0.2809747E+02  0.0000000E+00  0.0000000E+00 -0.1732883E+03  0.0000000E+00  0.6347510E+02  0.0000000E+00  0.0000000E+00  0.1857640E+01
  0.4999000E+00  0.7994000E+00  0.2035347E+01  0.1902240E-01  0.1685821E+03  0.0000000E+00  0.0000000E+00 -0.1373369E+03  0.0000000E+00  0.2579513E+02  0.0000000E+00  0.0000000E+00  0.1858020E+01
  0.4033000E+00  0.6080000E+00  0.2977005E+01  0.1838426E-01  0.7381756E+01  0.0000000E+00  0.0000000E+00  0.4849239E+02  0.0000000E+00  0.1207463E+03  0.0000000E+00  0.0000000E+00  0.1857430E+01
ZONE T="Phs 6, Fr=0.340,  Ak=0.025", i=      7, j=  1, k=  1, F=POINT
  0.7382000E+00  0.1389000E+01  0.9414114E+00  0.2452649E-01  0.1791872E+03  0.0000000E+00  0.0000000E+00  0.1662105E+03  0.0000000E+00  0.1777798E+03  0.0000000E+00  0.0000000E+00  0.1867420E+01
  0.7157000E+00  0.1327400E+01  0.9990230E+00  0.2517742E-01  0.1076108E+03  0.0000000E+00  0.0000000E+00  0.1574495E+03  0.0000000E+00 -0.1486902E+03  0.0000000E+00  0.0000000E+00  0.1862640E+01
  0.6645000E+00  0.1193200E+01  0.1153184E+01  0.2566177E-01  0.1635987E+03  0.0000000E+00  0.0000000E+00  0.1757218E+03  0.0000000E+00  0.1627889E+03  0.0000000E+00  0.0000000E+00  0.1858330E+01
  0.6277000E+00  0.1098600E+01  0.1293030E+01  0.2481405E-01  0.1255091E+03  0.0000000E+00  0.0000000E+00 -0.1616133E+03  0.0000000E+00  0.1454655E+03  0.0000000E+00  0.0000000E+00  0.1855890E+01
  0.5844000E+00  0.9930000E+00  0.1491586E+01  0.2365575E-01  0.9074870E+02  0.0000000E+00  0.0000000E+00  0.6547158E+02  0.0000000E+00 -0.9794375E+02  0.0000000E+00  0.0000000E+00  0.1857640E+01
  0.4999000E+00  0.7994000E+00  0.2035347E+01  0.1902240E-01 -0.9771900E+02  0.0000000E+00  0.0000000E+00  0.1175974E+03  0.0000000E+00 -0.2098973E+02  0.0000000E+00  0.0000000E+00  0.1858020E+01
  0.4033000E+00  0.6080000E+00  0.2977005E+01  0.1838426E-01 -0.1634471E+03  0.0000000E+00  0.0000000E+00  0.6248686E+02  0.0000000E+00  0.1020152E+03  0.0000000E+00  0.0000000E+00  0.1857430E+01
ZONE T="Phs 7, Fr=0.340,  Ak=0.025", i=      7, j=  1, k=  1, F=POINT
  0.7382000E+00  0.1389000E+01  0.9414114E+00  0.2452649E-01 -0.1642967E+03  0.0000000E+00  0.0000000E+00 -0.1764982E+03  0.0000000E+00  0.1043755E+03  0.0000000E+00  0.0000000E+00  0.1867420E+01
  0.7157000E+00  0.1327400E+01  0.9990230E+00  0.2517742E-01  0.1290007E+03  0.0000000E+00  0.0000000E+00  0.1632851E+03  0.0000000E+00 -0.1246118E+03  0.0000000E+00  0.0000000E+00  0.1862640E+01
  0.6645000E+00  0.1193200E+01  0.1153184E+01  0.2566177E-01  0.1743109E+03  0.0000000E+00  0.0000000E+00  0.1733970E+03  0.0000000E+00 -0.1647042E+03  0.0000000E+00  0.0000000E+00  0.1858330E+01
  0.6277000E+00  0.1098600E+01  0.1293030E+01  0.2481405E-01 -0.1764257E+03  0.0000000E+00  0.0000000E+00  0.1659646E+03  0.0000000E+00  0.1786041E+03  0.0000000E+00  0.0000000E+00  0.1855890E+01
  0.5844000E+00  0.9930000E+00  0.1491586E+01  0.2365575E-01  0.8586086E+02  0.0000000E+00  0.0000000E+00  0.5555897E+02  0.0000000E+00 -0.1751823E+03  0.0000000E+00  0.0000000E+00  0.1857640E+01
  0.4999000E+00  0.7994000E+00  0.2035347E+01  0.1902240E-01 -0.1234570E+03  0.0000000E+00  0.0000000E+00 -0.2141298E+02  0.0000000E+00  0.6344767E+02  0.0000000E+00  0.0000000E+00  0.1858020E+01
  0.4033000E+00  0.6080000E+00  0.2977005E+01  0.1838426E-01 -0.1368911E+03  0.0000000E+00  0.0000000E+00  0.7816254E+02  0.0000000E+00  0.5474543E+02  0.0000000E+00  0.0000000E+00  0.1857430E+01
ZONE T="Phs 8, Fr=0.340,  Ak=0.025", i=      7, j=  1, k=  1, F=POINT
  0.7382000E+00  0.1389000E+01  0.9414114E+00  0.2452649E-01  0.1693658E+03  0.0000000E+00  0.0000000E+00  0.1414181E+03  0.0000000E+00 -0.1437163E+03  0.0000000E+00  0.0000000E+00  0.1867420E+01
  0.7157000E+00  0.1327400E+01  0.9990230E+00  0.2517742E-01  0.1511638E+03  0.0000000E+00  0.0000000E+00  0.1631247E+03  0.0000000E+00  0.1625437E+03  0.0000000E+00  0.0000000E+00  0.1862640E+01
  0.6645000E+00  0.1193200E+01  0.1153184E+01  0.2566177E-01  0.1609525E+03  0.0000000E+00  0.0000000E+00 -0.1470674E+03  0.0000000E+00  0.1726068E+03  0.0000000E+00  0.0000000E+00  0.1858330E+01
  0.6277000E+00  0.1098600E+01  0.1293030E+01  0.2481405E-01  0.1766179E+03  0.0000000E+00  0.0000000E+00  0.1765447E+03  0.0000000E+00  0.1031422E+02  0.0000000E+00  0.0000000E+00  0.1855890E+01
  0.5844000E+00  0.9930000E+00  0.1491586E+01  0.2365575E-01  0.1161077E+02  0.0000000E+00  0.0000000E+00 -0.7250883E+02  0.0000000E+00  0.1433982E+03  0.0000000E+00  0.0000000E+00  0.1857640E+01
  0.4999000E+00  0.7994000E+00  0.2035347E+01  0.1902240E-01 -0.1320395E+03  0.0000000E+00  0.0000000E+00 -0.1573188E+03  0.0000000E+00  0.3078565E+02  0.0000000E+00  0.0000000E+00  0.1858020E+01
  0.4033000E+00  0.6080000E+00  0.2977005E+01  0.1838426E-01 -0.1730641E+03  0.0000000E+00  0.0000000E+00  0.7540402E+02  0.0000000E+00  0.6599056E+02  0.0000000E+00  0.0000000E+00  0.1857430E+01
ZONE T="Phs 9, Fr=0.340,  Ak=0.025", i=      7, j=  1, k=  1, F=POINT
  0.7382000E+00  0.1389000E+01  0.9414114E+00  0.2452649E-01  0.1735766E+03  0.0000000E+00  0.0000000E+00  0.1743945E+03  0.0000000E+00  0.1721778E+03  0.0000000E+00  0.0000000E+00  0.1867420E+01
  0.7157000E+00  0.1327400E+01  0.9990230E+00  0.2517742E-01  0.1583125E+03  0.0000000E+00  0.0000000E+00 -0.1793432E+03  0.0000000E+00  0.1791868E+03  0.0000000E+00  0.0000000E+00  0.1862640E+01
  0.6645000E+00  0.1193200E+01  0.1153184E+01  0.2566177E-01  0.1602128E+03  0.0000000E+00  0.0000000E+00 -0.1799734E+03  0.0000000E+00  0.1469811E+03  0.0000000E+00  0.0000000E+00  0.1858330E+01