TITLE = "PITCH AND HEAVE SPECTRUM DATA FOR MODEL 5512 WO BILGE KEELS"
VARIABLES = fre_w, amp_w, pow_w, fre_x, amp_x, pow_x, fre_y, amp_y, pow_y, fre_z, amp_z, pow_z, fre_roll, amp_roll, pow_roll, fre_pitch, amp_pitch, pow_pitch, fre_yaw, amp_yaw, pow_yaw
ZONE T="saak1_01, Fr=0.000,  Ak=0.025", i=  512, j=  1, k=  1, F=POINT
  0.0000000E+00  0.9510132E-01  0.4522131E-02  0.0000000E+00  0.8234257E-01  0.3390150E-02  0.0000000E+00  0.9382495E-01  0.4401560E-02  0.0000000E+00  0.2501527E+00  0.3128820E-01  0.0000000E+00  0.8374054E-02  0.3506239E-04  0.0000000E+00  0.2951280E-02  0.4355025E-05  0.0000000E+00  0.1648985E-02  0.1359576E-05
  0.5208334E-01  0.4651465E+01  0.1081806E+02  0.5208334E-01  0.6450086E+00  0.2080180E+00  0.5208334E-01  0.1928325E+00  0.1859219E-01  0.5208334E-01  0.4081902E+01  0.8330961E+01  0.5208334E-01  0.9290508E-02  0.4315678E-04  0.5208334E-01  0.1729855E-01  0.1496200E-03  0.5208334E-01  0.1376116E-01  0.9468472E-04
  0.1041667E+00  0.1732040E+01  0.1499981E+01  0.1041667E+00  0.1708064E+00  0.1458741E-01  0.1041667E+00  0.1162827E+00  0.6760831E-02  0.1041667E+00  0.1130035E+01  0.6384890E+00  0.1041667E+00  0.5408831E-02  0.1462773E-04  0.1041667E+00  0.1165160E-01  0.6787988E-04  0.1041667E+00  0.7382448E-02  0.2725027E-04
  0.1562500E+00  0.3684522E+00  0.6787849E-01  0.1562500E+00  0.1959256E+00  0.1919342E-01  0.1562500E+00  0.2874040E-01  0.4130052E-03  0.1562500E+00  0.1159025E+01  0.6716692E+00  0.1562500E+00  0.1164708E-02  0.6782722E-06  0.1562500E+00  0.8551832E-02  0.3656691E-04  0.1562500E+00  0.2615052E-02  0.3419248E-05
  0.2083333E+00  0.4982864E+00  0.1241447E+00  0.2083333E+00  0.9396353E-01  0.4414572E-02  0.2083333E+00  0.6799406E-01  0.2311596E-02  0.2083333E+00  0.5366210E+00  0.1439810E+00  0.2083333E+00  0.3355167E-02  0.5628572E-05  0.2083333E+00  0.4819883E-02  0.1161564E-04  0.2083333E+00  0.4345209E-02  0.9440419E-05
  0.2604167E+00  0.4267884E+00  0.9107416E-01  0.2604167E+00  0.2044968E-01  0.2090947E-03  0.2604167E+00  0.2756061E-01  0.3797935E-03  0.2604167E+00  0.1952828E+00  0.1906769E-01  0.2604167E+00  0.1620043E-02  0.1312269E-05  0.2604167E+00  0.6039623E-02  0.1823852E-04  0.2604167E+00  0.1642509E-02  0.1348918E-05
  0.3125000E+00  0.3883388E+00  0.7540351E-01  0.3125000E+00  0.4109846E-01  0.8445416E-03  0.3125000E+00  0.4718135E-01  0.1113040E-02  0.3125000E+00  0.2300584E+00  0.2646343E-01  0.3125000E+00  0.2454948E-02  0.3013385E-05  0.3125000E+00  0.5918971E-02  0.1751711E-04  0.3125000E+00  0.2938832E-02  0.4318367E-05
  0.3645833E+00  0.2854606E+00  0.4074389E-01  0.3645833E+00  0.3855138E-01  0.7431044E-03  0.3645833E+00  0.3226091E-01  0.5203832E-03  0.3645833E+00  0.1735776E+00  0.1506460E-01  0.3645833E+00  0.6596928E-03  0.2175973E-06  0.3645833E+00  0.2549822E-02  0.3250797E-05  0.3645833E+00  0.2649958E-02  0.3511138E-05
  0.4166667E+00  0.2372741E+00  0.2814950E-01  0.4166667E+00  0.3167260E-01  0.5015770E-03  0.4166667E+00  0.3993410E-01  0.7973663E-03  0.4166667E+00  0.5991329E-01  0.1794801E-02  0.4166667E+00  0.1856784E-02  0.1723824E-05  0.4166667E+00  0.6578040E-02  0.2163531E-04  0.4166667E+00  0.2917016E-02  0.4254491E-05
  0.4687500E+00  0.3493386E+00  0.6101873E-01  0.4687500E+00  0.2281224E-01  0.2601990E-03  0.4687500E+00  0.5089350E-01  0.1295074E-02  0.4687500E+00  0.3716446E-01  0.6905985E-03  0.4687500E+00  0.2332596E-02  0.2720502E-05  0.4687500E+00  0.3498792E-02  0.6120773E-05  0.4687500E+00  0.3604685E-02  0.6496877E-05
  0.5208334E+00  0.2460836E+00  0.3027857E-01  0.5208334E+00  0.1313173E-01  0.8622111E-04  0.5208334E+00  0.1756133E-01  0.1542002E-03  0.5208334E+00  0.8026177E-01  0.3220976E-02  0.5208334E+00  0.1636845E-02  0.1339631E-05  0.5208334E+00  0.4696278E-02  0.1102752E-04  0.5208334E+00  0.1142091E-02  0.6521864E-06
  0.5729167E+00  0.2605847E+00  0.3395218E-01  0.5729167E+00  0.2415934E-01  0.2918368E-03  0.5729167E+00  0.3446715E-01  0.5939922E-03  0.5729167E+00  0.1159911E+00  0.6726967E-02  0.5729167E+00  0.1616241E-02  0.1306118E-05  0.5729167E+00  0.3119316E-02  0.4865066E-05  0.5729167E+00  0.2598016E-02  0.3374844E-05
  0.6250001E+00  0.2967362E+00  0.4402620E-01  0.6250001E+00  0.1921434E-01  0.1845954E-03  0.6250001E+00  0.2669522E-01  0.3563174E-03  0.6250001E+00  0.1133292E+00  0.6421758E-02  0.6250001E+00  0.1417878E-02  0.1005188E-05  0.6250001E+00  0.2416793E-02  0.2920445E-05  0.6250001E+00  0.1812968E-02  0.1643427E-05
  0.6770834E+00  0.3511782E+00  0.6166307E-01  0.6770834E+00  0.2286166E-01  0.2613277E-03  0.6770834E+00  0.2389408E-01  0.2854636E-03  0.6770834E+00  0.9542207E-01  0.4552686E-02  0.6770834E+00  0.7667544E-03  0.2939561E-06  0.6770834E+00  0.2583610E-02  0.3337520E-05  0.6770834E+00  0.2407478E-02  0.2897975E-05
  0.7291667E+00  0.3926673E+00  0.7709380E-01  0.7291667E+00  0.3003457E-01  0.4510377E-03  0.7291667E+00  0.4645628E-01  0.1079093E-02  0.7291667E+00  0.1874771E+00  0.1757382E-01  0.7291667E+00  0.2035984E-02  0.2072615E-05  0.7291667E+00  0.2718425E-02  0.3694918E-05  0.7291667E+00  0.2614135E-02  0.3416850E-05
  0.7812501E+00  0.4830672E+00  0.1166770E+00  0.7812501E+00  0.4318789E-01  0.9325971E-03  0.7812501E+00  0.4047496E-01  0.8191111E-03  0.7812501E+00  0.1531809E+00  0.1173220E-01  0.7812501E+00  0.1234718E-02  0.7622646E-06  0.7812501E+00  0.6233102E-02  0.1942578E-04  0.7812501E+00  0.3262290E-02  0.5321268E-05
  0.8333334E+00  0.6040474E+00  0.1824366E+00  0.8333334E+00  0.3623804E-01  0.6565976E-03  0.8333334E+00  0.2182077E-01  0.2380730E-03  0.8333334E+00  0.2218210E+00  0.2460228E-01  0.8333334E+00  0.1330358E-02  0.8849262E-06  0.8333334E+00  0.7682428E-02  0.2950985E-04  0.8333334E+00  0.1576057E-02  0.1241978E-05
  0.8854167E+00  0.8065091E+00  0.3252285E+00  0.8854167E+00  0.4957706E-01  0.1228943E-02  0.8854167E+00  0.3048955E-01  0.4648065E-03  0.8854167E+00  0.2720009E+00  0.3699225E-01  0.8854167E+00  0.1632088E-02  0.1331855E-05  0.8854167E+00  0.1312548E-01  0.8613914E-04  0.8854167E+00  0.1094233E-02  0.5986735E-06
  0.9375001E+00  0.1274973E+01  0.8127776E+00  0.9375001E+00  0.7783865E-01  0.3029428E-02  0.9375001E+00  0.2698736E-01  0.3641587E-03  0.9375001E+00  0.4364475E+00  0.9524319E-01  0.9375001E+00  0.8303981E-03  0.3447805E-06  0.9375001E+00  0.1992586E-01  0.1985199E-03  0.9375001E+00  0.3329401E-02  0.5542454E-05
  0.9895834E+00  0.5395290E+01  0.1455458E+02  0.9895834E+00  0.3605058E+00  0.6498222E-01  0.9895834E+00  0.1006090E+00  0.5061088E-02  0.9895834E+00  0.2170567E+01  0.2355680E+01  0.9895834E+00  0.4357064E-02  0.9492001E-05  0.9895834E+00  0.9179287E-01  0.4212965E-02  0.9895834E+00  0.1413606E-01  0.9991414E-04
  0.1041667E+01  0.2743586E+01  0.3763632E+01  0.1041667E+01  0.1446875E+00  0.1046724E-01  0.1041667E+01  0.7048586E-01  0.2484128E-02  0.1041667E+01  0.8510230E+00  0.3621200E+00  0.1041667E+01  0.2846434E-02  0.4051092E-05  0.1041667E+01  0.4843419E-01  0.1172936E-02  0.1041667E+01  0.9323271E-02  0.4346169E-04
  0.1093750E+01  0.1315566E+01  0.8653567E+00  0.1093750E+01  0.6596789E-01  0.2175881E-02  0.1093750E+01  0.4807111E-01  0.1155416E-02  0.1093750E+01  0.3311817E+00  0.5484065E-01  0.1093750E+01  0.2147393E-02  0.2305648E-05  0.1093750E+01  0.2113187E-01  0.2232781E-03  0.1093750E+01  0.5106287E-02  0.1303708E-04
  0.1145833E+01  0.6824442E+00  0.2328651E+00  0.1145833E+01  0.2787000E-01  0.3883686E-03  0.1145833E+01  0.3366889E-01  0.5667971E-03  0.1145833E+01  0.1883443E+00  0.1773678E-01  0.1145833E+01  0.1753662E-02  0.1537665E-05  0.1145833E+01  0.1100801E-01  0.6058817E-04  0.1145833E+01  0.3793813E-02  0.7196510E-05
  0.1197917E+01  0.5205359E+00  0.1354788E+00  0.1197917E+01  0.1673189E-01  0.1399781E-03  0.1197917E+01  0.2586967E-01  0.3346198E-03  0.1197917E+01  0.1495544E+00  0.1118326E-01  0.1197917E+01  0.1219989E-02  0.7441860E-06  0.1197917E+01  0.8460972E-02  0.3579403E-04  0.1197917E+01  0.2969000E-02  0.4407481E-05
  0.1250000E+01  0.4346192E+00  0.9444691E-01  0.1250000E+01  0.2498294E-01  0.3120738E-03  0.1250000E+01  0.2411616E-01  0.2907946E-03  0.1250000E+01  0.9729356E-01  0.4733018E-02  0.1250000E+01  0.1618602E-02  0.1309936E-05  0.1250000E+01  0.6824715E-02  0.2328837E-04  0.1250000E+01  0.1435856E-02  0.1030841E-05
  0.1302083E+01  0.3292569E+00  0.5420505E-01  0.1302083E+01  0.1356518E-01  0.9200702E-04  0.1302083E+01  0.1463168E-01  0.1070430E-03  0.1302083E+01  0.9690785E-01  0.4695565E-02  0.1302083E+01  0.3130934E-03  0.4901374E-07  0.1302083E+01  0.5141265E-02  0.1321630E-04  0.1302083E+01  0.1490083E-02  0.1110173E-05
  0.1354167E+01  0.2742865E+00  0.3761655E-01  0.1354167E+01  0.1506354E-01  0.1134551E-03  0.1354167E+01  0.1237623E-01  0.7658550E-04  0.1354167E+01  0.7034399E-01  0.2474139E-02  0.1354167E+01  0.1100530E-02  0.6055832E-06  0.1354167E+01  0.7030339E-02  0.2471284E-04  0.1354167E+01  0.5943954E-03  0.1766529E-06
  0.1406250E+01  0.2247725E+00  0.2526133E-01  0.1406250E+01  0.4048885E-02  0.8196734E-05  0.1406250E+01  0.1199133E-01  0.7189602E-04  0.1406250E+01  0.6141981E-01  0.1886197E-02  0.1406250E+01  0.2849036E-04  0.4058503E-09  0.1406250E+01  0.4819460E-02  0.1161360E-04  0.1406250E+01  0.1080493E-02  0.5837327E-06
  0.1458333E+01  0.2210255E+00  0.2442612E-01  0.1458333E+01  0.1177528E-01  0.6932858E-04  0.1458333E+01  0.1356181E-01  0.9196133E-04  0.1458333E+01  0.6236064E-01  0.1944425E-02  0.1458333E+01  0.3950027E-03  0.7801357E-07  0.1458333E+01  0.3582777E-02  0.6418146E-05  0.1458333E+01  0.5977952E-03  0.1786796E-06
  0.1510417E+01  0.1907197E+00  0.1818701E-01  0.1510417E+01  0.4329601E-02  0.9372724E-05  0.1510417E+01  0.2457355E-01  0.3019298E-03  0.1510417E+01  0.4520908E-01  0.1021930E-02  0.1510417E+01  0.5024920E-03  0.1262491E-06  0.1510417E+01  0.4379469E-02  0.9589872E-05  0.1510417E+01  0.2445663E-02  0.2990634E-05
  0.1562500E+01  0.1683123E+00  0.1416452E-01  0.1562500E+01  0.1488085E-01  0.1107198E-03  0.1562500E+01  0.1255983E-01  0.7887461E-04  0.1562500E+01  0.6474827E-01  0.2096170E-02  0.1562500E+01  0.5578219E-03  0.1555827E-06  0.1562500E+01  0.4667065E-02  0.1089075E-04  0.1562500E+01  0.1188557E-02  0.7063340E-06
  0.1614583E+01  0.1562524E+00  0.1220741E-01  0.1614583E+01  0.6026968E-02  0.1816217E-04  0.1614583E+01  0.1477596E-01  0.1091646E-03  0.1614583E+01  0.4344353E-01  0.9436699E-03  0.1614583E+01  0.1213450E-02  0.7362311E-06  0.1614583E+01  0.3228287E-02  0.5210919E-05  0.1614583E+01  0.9869733E-03  0.4870582E-06
  0.1666667E+01  0.1463802E+00  0.1071358E-01  0.1666667E+01  0.7975958E-02  0.3180796E-04  0.1666667E+01  0.1603949E-01  0.1286326E-03  0.1666667E+01  0.2894503E-01  0.4189073E-03  0.1666667E+01  0.1007621E-02  0.5076499E-06  0.1666667E+01  0.2786388E-02  0.3881979E-05  0.1666667E+01  0.1086459E-02  0.5901971E-06
  0.1718750E+01  0.1389569E+00  0.9654510E-02  0.1718750E+01  0.2825382E-02  0.3991392E-05  0.1718750E+01  0.1135951E-01  0.6451918E-04  0.1718750E+01  0.3812697E-01  0.7268330E-03  0.1718750E+01  0.5721631E-03  0.1636853E-06  0.1718750E+01  0.2795166E-02  0.3906476E-05  0.1718750E+01  0.1105791E-02  0.6113868E-06
  0.1770833E+01  0.1218062E+00  0.7418381E-02  0.1770833E+01  0.1043841E-01  0.5448018E-04  0.1770833E+01  0.3043526E-01  0.4631526E-03  0.1770833E+01  0.2162172E-01  0.2337495E-03  0.1770833E+01  0.1793844E-02  0.1608938E-05  0.1770833E+01  0.5173208E-02  0.1338104E-04  0.1770833E+01  0.1842717E-02  0.1697803E-05
  0.1822917E+01  0.1131052E+00  0.6396395E-02  0.1822917E+01  0.9923070E-02  0.4923365E-04  0.1822917E+01  0.1550681E-01  0.1202306E-03  0.1822917E+01  0.2583656E-01  0.3337640E-03  0.1822917E+01  0.9741927E-03  0.4745257E-06  0.1822917E+01  0.2615356E-02  0.3420044E-05  0.1822917E+01  0.1155996E-02  0.6681632E-06
  0.1875000E+01  0.1168954E+00  0.6832269E-02  0.1875000E+01  0.1467999E-01  0.1077511E-03  0.1875000E+01  0.4402179E-01  0.9689590E-03  0.1875000E+01  0.3203458E-01  0.5131072E-03  0.1875000E+01  0.1597143E-02  0.1275433E-05  0.1875000E+01  0.4008810E-02  0.8035279E-05  0.1875000E+01  0.2747363E-02  0.3774003E-05
  0.1927083E+01  0.1008134E+00  0.5081666E-02  0.1927083E+01  0.6108667E-02  0.1865791E-04  0.1927083E+01  0.2209780E-01  0.2441564E-03  0.1927083E+01  0.1392390E-01  0.9693747E-04  0.1927083E+01  0.7422022E-03  0.2754321E-06  0.1927083E+01  0.3934267E-02  0.7739226E-05  0.1927083E+01  0.1378929E-02  0.9507223E-06
  0.1979167E+01  0.1205449E+00  0.7265533E-02  0.1979167E+01  0.6325951E-02  0.2000883E-04  0.1979167E+01  0.1052049E-01  0.5534032E-04  0.1979167E+01  0.3120083E-01  0.4867460E-03  0.1979167E+01  0.1108165E-02  0.6140151E-06  0.1979167E+01  0.3024434E-02  0.4573600E-05  0.1979167E+01  0.6630193E-03  0.2197973E-06
  0.2031250E+01  0.5648242E-01  0.1595132E-02  0.2031250E+01  0.8457332E-02  0.3576323E-04  0.2031250E+01  0.2232675E-01  0.2492419E-03  0.2031250E+01  0.3961992E-01  0.7848691E-03  0.2031250E+01  0.1547755E-02  0.1197773E-05  0.2031250E+01  0.1623992E-02  0.1318675E-05  0.2031250E+01  0.1850429E-02  0.1712043E-05
  0.2083333E+01  0.7022820E-01  0.2466000E-02  0.2083333E+01  0.6520757E-02  0.2126014E-04  0.2083333E+01  0.1460614E-01  0.1066697E-03  0.2083333E+01  0.1123370E-01  0.6309798E-04  0.2083333E+01  0.5821885E-03  0.1694717E-06  0.2083333E+01  0.3200935E-02  0.5122992E-05  0.2083333E+01  0.1226700E-02  0.7523963E-06
  0.2135417E+01  0.7340539E-01  0.2694175E-02  0.2135417E+01  0.1507250E-01  0.1135902E-03  0.2135417E+01  0.3064531E-01  0.4695674E-03  0.2135417E+01  0.1535765E-01  0.1179286E-03  0.2135417E+01  0.1882998E-02  0.1772841E-05  0.2135417E+01  0.2064743E-02  0.2131582E-05  0.2135417E+01  0.1823467E-02  0.1662515E-05
  0.2187500E+01  0.6255116E-01  0.1956324E-02  0.2187500E+01  0.1173799E-01  0.6889017E-04  0.2187500E+01  0.2442433E-01  0.2982741E-03  0.2187500E+01  0.1716223E-01  0.1472711E-03  0.2187500E+01  0.5190868E-03  0.1347256E-06  0.2187500E+01  0.2840088E-02  0.4033050E-05  0.2187500E+01  0.1827564E-02  0.1669995E-05
  0.2239583E+01  0.5777066E-01  0.1668725E-02  0.2239583E+01  0.1184787E-01  0.7018601E-04  0.2239583E+01  0.2996595E-01  0.4489791E-03  0.2239583E+01  0.8672161E-02  0.3760319E-04  0.2239583E+01  0.1104511E-02  0.6099720E-06  0.2239583E+01  0.2237911E-02  0.2504123E-05  0.2239583E+01  0.1830286E-02  0.1674973E-05
  0.2291667E+01  0.5981308E-01  0.1788802E-02  0.2291667E+01  0.1397293E-01  0.9762132E-04  0.2291667E+01  0.3311444E-01  0.5482831E-03  0.2291667E+01  0.2201526E-01  0.2423358E-03  0.2291667E+01  0.8944034E-03  0.3999787E-06  0.2291667E+01  0.1890384E-02  0.1786776E-05  0.2291667E+01  0.1952688E-02  0.1906495E-05
  0.2343750E+01  0.5918813E-01  0.1751617E-02  0.2343750E+01  0.6492821E-02  0.2107836E-04  0.2343750E+01  0.1365025E-01  0.9316461E-04  0.2343750E+01  0.1501147E-01  0.1126721E-03  0.2343750E+01  0.2733687E-03  0.3736522E-07  0.2343750E+01  0.2636761E-02  0.3476256E-05  0.2343750E+01  0.9392439E-03  0.4410896E-06
  0.2395833E+01  0.5756855E-01  0.1657069E-02  0.2395833E+01  0.6012696E-02  0.1807626E-04  0.2395833E+01  0.1103275E-01  0.6086075E-04  0.2395833E+01  0.1383192E-01  0.9566102E-04  0.2395833E+01  0.1037866E-02  0.5385832E-06  0.2395833E+01  0.2079879E-02  0.2162948E-05  0.2395833E+01  0.7787423E-03  0.3032198E-06
  0.2447917E+01  0.5238506E-01  0.1372097E-02  0.2447917E+01  0.4516780E-02  0.1020065E-04  0.2447917E+01  0.1419903E-01  0.1008063E-03  0.2447917E+01  0.1881554E-01  0.1770123E-03  0.2447917E+01  0.6267695E-03  0.1964200E-06  0.2447917E+01  0.2339371E-02  0.2736328E-05  0.2447917E+01  0.8530354E-03  0.3638347E-06
  0.2500000E+01  0.5530551E-01  0.1529350E-02  0.2500000E+01  0.5481592E-02  0.1502393E-04  0.2500000E+01  0.1018859E-01  0.5190372E-04  0.2500000E+01  0.1767078E-01  0.1561283E-03  0.2500000E+01  0.1299884E-02  0.8448491E-06  0.2500000E+01  0.1247379E-02  0.7779774E-06  0.2500000E+01  0.5924137E-03  0.1754770E-06
  0.2552083E+01  0.5111860E-01  0.1306555E-02  0.2552083E+01  0.8723235E-02  0.3804741E-04  0.2552083E+01  0.9869518E-02  0.4870369E-04  0.2552083E+01  0.1443441E-01  0.1041760E-03  0.2552083E+01  0.6301628E-03  0.1985526E-06  0.2552083E+01  0.1630507E-02  0.1329277E-05  0.2552083E+01  0.9704260E-03  0.4708633E-06
  0.2604167E+01  0.5154482E-01  0.1328434E-02  0.2604167E+01  0.6452998E-02  0.2082059E-04  0.2604167E+01  0.6755843E-02  0.2282071E-04  0.2604167E+01  0.2198411E-01  0.2416506E-03  0.2604167E+01  0.6826756E-03  0.2330230E-06  0.2604167E+01  0.2296912E-02  0.2637902E-05  0.2604167E+01  0.6005824E-04  0.1803496E-08
  0.2656250E+01  0.4992751E-01  0.1246378E-02  0.2656250E+01  0.2938862E-02  0.4318454E-05  0.2656250E+01  0.1205071E-01  0.7260986E-04  0.2656250E+01  0.2076860E-01  0.2156674E-03  0.2656250E+01  0.9252190E-03  0.4280151E-06  0.2656250E+01  0.1109212E-02  0.6151757E-06  0.2656250E+01  0.8248567E-03  0.3401942E-06
  0.2708333E+01  0.4752897E-01  0.1129501E-02  0.2708333E+01  0.8066895E-02  0.3253740E-04  0.2708333E+01  0.6933501E-02  0.2403672E-04  0.2708333E+01  0.2224623E-01  0.2474474E-03  0.2708333E+01  0.3315380E-03  0.5495872E-07  0.2708333E+01  0.1204894E-02  0.7258849E-06  0.2708333E+01  0.8331285E-03  0.3470515E-06
  0.2760417E+01  0.4826604E-01  0.1164805E-02  0.2760417E+01  0.1027854E-01  0.5282424E-04  0.2760417E+01  0.1333263E-01  0.8887945E-04  0.2760417E+01  0.1951562E-01  0.1904298E-03  0.2760417E+01  0.1504864E-02  0.1132308E-05  0.2760417E+01  0.1550596E-02  0.1202175E-05  0.2760417E+01  0.7973372E-03  0.3178733E-06
  0.2812500E+01  0.4567556E-01  0.1043128E-02  0.2812500E+01  0.1123253E-01  0.6308485E-04  0.2812500E+01  0.2635988E-01  0.3474215E-03  0.2812500E+01  0.1864186E-01  0.1737594E-03  0.2812500E+01  0.1325794E-02  0.8788645E-06  0.2812500E+01  0.9445163E-03  0.4460555E-06  0.2812500E+01  0.1639266E-02  0.1343597E-05
  0.2864583E+01  0.3904982E-01  0.7624442E-03  0.2864583E+01  0.3637356E-02  0.6615180E-05  0.2864583E+01  0.1366161E-01  0.9331985E-04  0.2864583E+01  0.1592607E-01  0.1268199E-03  0.2864583E+01  0.1625042E-02  0.1320380E-05  0.2864583E+01  0.1258805E-02  0.7922947E-06  0.2864583E+01  0.9555815E-03  0.4565681E-06
  0.2916667E+01  0.3566252E-01  0.6359076E-03  0.2916667E+01  0.5496050E-02  0.1510328E-04  0.2916667E+01  0.5216070E-02  0.1360369E-04  0.2916667E+01  0.7135144E-02  0.2545513E-04  0.2916667E+01  0.1133278E-02  0.6421593E-06  0.2916667E+01  0.1244928E-02  0.7749231E-06  0.2916667E+01  0.2734372E-03  0.3738397E-07
  0.2968750E+01  0.4451750E-01  0.9909039E-03  0.2968750E+01  0.6631925E-02  0.2199122E-04  0.2968750E+01  0.1686191E-01  0.1421620E-03  0.2968750E+01  0.1238970E-01  0.7675235E-04  0.2968750E+01  0.8867444E-03  0.3931578E-06  0.2968750E+01  0.1312747E-02  0.8616517E-06  0.2968750E+01  0.1235370E-02  0.7630694E-06
  0.3020833E+01  0.6584382E-01  0.2167704E-02  0.3020833E+01  0.3595862E-02  0.6465111E-05  0.3020833E+01  0.4952655E-02  0.1226439E-04  0.3020833E+01  0.1142122E-01  0.6522217E-04  0.3020833E+01  0.8498414E-03  0.3611152E-06  0.3020833E+01  0.1615461E-02  0.1304857E-05  0.3020833E+01  0.1445867E-02  0.1045265E-05
  0.3072917E+01  0.2750154E-01  0.3781674E-03  0.3072917E+01  0.2140455E-02  0.2290775E-05  0.3072917E+01  0.1341690E-01  0.9000656E-04  0.3072917E+01  0.8780857E-02  0.3855172E-04  0.3072917E+01  0.9324033E-03  0.4346879E-06  0.3072917E+01  0.1535314E-02  0.1178594E-05  0.3072917E+01  0.7632998E-03  0.2913133E-06
  0.3125000E+01  0.4652907E-01  0.1082477E-02  0.3125000E+01  0.4512022E-02  0.1017917E-04  0.3125000E+01  0.1121519E-01  0.6289024E-04  0.3125000E+01  0.1343392E-01  0.9023515E-04  0.3125000E+01  0.9323287E-03  0.4346184E-06  0.3125000E+01  0.8951456E-03  0.4006428E-06  0.3125000E+01  0.1091236E-02  0.5953980E-06
  0.3177083E+01  0.4665548E-01  0.1088367E-02  0.3177083E+01  0.2164513E-02  0.2342558E-05  0.3177083E+01  0.9521684E-02  0.4533124E-04  0.3177083E+01  0.1621854E-01  0.1315206E-03  0.3177083E+01  0.1509423E-03  0.1139179E-07  0.3177083E+01  0.8280614E-03  0.3428429E-06  0.3177083E+01  0.7600860E-03  0.2888654E-06
  0.3229167E+01  0.2668066E-01  0.3559287E-03  0.3229167E+01  0.1899638E-02  0.1804312E-05  0.3229167E+01  0.2008995E-01  0.2018031E-03  0.3229167E+01  0.8450639E-02  0.3570666E-04  0.3229167E+01  0.1608362E-02  0.1293415E-05  0.3229167E+01  0.1131978E-02  0.6406872E-06  0.3229167E+01  0.8767007E-03  0.3843021E-06
  0.3281250E+01  0.3186052E-01  0.5075465E-03  0.3281250E+01  0.3621760E-02  0.6558571E-05  0.3281250E+01  0.7725735E-02  0.2984349E-04  0.3281250E+01  0.5418717E-02  0.1468125E-04  0.3281250E+01  0.7259582E-03  0.2635077E-06  0.3281250E+01  0.1497531E-02  0.1121299E-05  0.3281250E+01  0.4822310E-03  0.1162734E-06
  0.3333333E+01  0.3106024E-01  0.4823693E-03  0.3333333E+01  0.2511022E-02  0.3152615E-05  0.3333333E+01  0.8702332E-02  0.3786529E-04  0.3333333E+01  0.1909438E-01  0.1822977E-03  0.3333333E+01  0.2900539E-03  0.4206562E-07  0.3333333E+01  0.4849024E-03  0.1175652E-06  0.3333333E+01  0.6725428E-03  0.2261569E-06
  0.3385417E+01  0.3552925E-01  0.6311638E-03  0.3385417E+01  0.2672608E-02  0.3571418E-05  0.3385417E+01  0.1003494E-01  0.5035003E-04  0.3385417E+01  0.6658790E-02  0.2216974E-04  0.3385417E+01  0.4091450E-03  0.8369982E-07  0.3385417E+01  0.1668718E-02  0.1392310E-05  0.3385417E+01  0.9529663E-03  0.4540724E-06
  0.3437500E+01  0.3187761E-01  0.5080912E-03  0.3437500E+01  0.4729286E-02  0.1118307E-04  0.3437500E+01  0.1388583E-01  0.9640819E-04  0.3437500E+01  0.1438794E-01  0.1035064E-03  0.3437500E+01  0.9013059E-03  0.4061761E-06  0.3437500E+01  0.1150215E-02  0.6614968E-06  0.3437500E+01  0.9824662E-03  0.4826199E-06
  0.3489583E+01  0.3060144E-01  0.4682241E-03  0.3489583E+01  0.2019061E-02  0.2038303E-05  0.3489583E+01  0.4439360E-02  0.9853959E-05  0.3489583E+01  0.9953002E-02  0.4953113E-04  0.3489583E+01  0.1213221E-03  0.7359532E-08  0.3489583E+01  0.1116265E-02  0.6230233E-06  0.3489583E+01  0.1599233E-03  0.1278773E-07
  0.3541667E+01  0.3297948E-01  0.5438230E-03  0.3541667E+01  0.1798656E-02  0.1617582E-05  0.3541667E+01  0.4706505E-02  0.1107559E-04  0.3541667E+01  0.9111376E-02  0.4150859E-04  0.3541667E+01  0.2925628E-03  0.4279649E-07  0.3541667E+01  0.1594459E-02  0.1271150E-05  0.3541667E+01  0.3082530E-03  0.4750996E-07
  0.3593750E+01  0.3004225E-01  0.4512684E-03  0.3593750E+01  0.1901978E-02  0.1808760E-05  0.3593750E+01  0.9205461E-02  0.4237026E-04  0.3593750E+01  0.9585232E-02  0.4593833E-04  0.3593750E+01  0.3155407E-03  0.4978298E-07  0.3593750E+01  0.1103850E-02  0.6092429E-06  0.3593750E+01  0.8657749E-03  0.3747831E-06
  0.3645833E+01  0.3104170E-01  0.4817935E-03  0.3645833E+01  0.4479609E-02  0.1003345E-04  0.3645833E+01  0.3098026E-02  0.4798884E-05  0.3645833E+01  0.1408884E-01  0.9924777E-04  0.3645833E+01  0.5523598E-03  0.1525507E-06  0.3645833E+01  0.8691938E-03  0.3777489E-06  0.3645833E+01  0.3384418E-03  0.5727141E-07
  0.3697917E+01  0.2827882E-01  0.3998459E-03  0.3697917E+01  0.4613561E-02  0.1064247E-04  0.3697917E+01  0.9046109E-02  0.4091605E-04  0.3697917E+01  0.4996165E-02  0.1248083E-04  0.3697917E+01  0.2535369E-03  0.3214047E-07  0.3697917E+01  0.1042069E-02  0.5429544E-06  0.3697917E+01  0.5657995E-03  0.1600645E-06
  0.3750000E+01  0.2790353E-01  0.3893035E-03  0.3750000E+01  0.5951281E-02  0.1770887E-04  0.3750000E+01  0.1617963E-01  0.1308902E-03  0.3750000E+01  0.7592184E-02  0.2882063E-04  0.3750000E+01  0.8314852E-03  0.3456838E-06  0.3750000E+01  0.1227487E-02  0.7533619E-06  0.3750000E+01  0.1229407E-02  0.7557204E-06
  0.3802083E+01  0.3058070E-01  0.4675895E-03  0.3802083E+01  0.1484204E-02  0.1101431E-05  0.3802083E+01  0.4976474E-03  0.1238265E-06  0.3802083E+01  0.1614732E-01  0.1303679E-03  0.3802083E+01  0.3971655E-03  0.7887023E-07  0.3802083E+01  0.3759255E-03  0.7066000E-07  0.3802083E+01  0.4660463E-03  0.1085996E-06
  0.3854167E+01  0.2850098E-01  0.4061529E-03  0.3854167E+01  0.1533767E-03  0.1176221E-07  0.3854167E+01  0.7688147E-02  0.2955380E-04  0.3854167E+01  0.8744792E-02  0.3823569E-04  0.3854167E+01  0.7744854E-03  0.2999138E-06  0.3854167E+01  0.7575607E-03  0.2869491E-06  0.3854167E+01  0.8090951E-04  0.3273175E-08
  0.3906250E+01  0.2597778E-01  0.3374226E-03  0.3906250E+01  0.2291552E-02  0.2625604E-05  0.3906250E+01  0.8453107E-02  0.3572752E-04  0.3906250E+01  0.8710525E-02  0.3793663E-04  0.3906250E+01  0.3557265E-03  0.6327068E-07  0.3906250E+01  0.1095708E-02  0.6002879E-06  0.3906250E+01  0.6089592E-03  0.1854156E-06
  0.3958333E+01  0.2445723E-01  0.2990781E-03  0.3958333E+01  0.7793188E-02  0.3036689E-04  0.3958333E+01  0.1227118E-01  0.7529095E-04  0.3958333E+01  0.1051268E-01  0.5525821E-04  0.3958333E+01  0.5736150E-03  0.1645171E-06  0.3958333E+01  0.1339956E-02  0.8977407E-06  0.3958333E+01  0.1055437E-02  0.5569732E-06
  0.4010417E+01  0.2750928E-01  0.3783803E-03  0.4010417E+01  0.5577626E-02  0.1555496E-04  0.4010417E+01  0.7755509E-02  0.3007396E-04  0.4010417E+01  0.1612727E-01  0.1300444E-03  0.4010417E+01  0.5007397E-03  0.1253701E-06  0.4010417E+01  0.1000999E-02  0.5009999E-06  0.4010417E+01  0.4304176E-03  0.9262967E-07
  0.4062500E+01  0.2450130E-01  0.3001569E-03  0.4062500E+01  0.1222037E-02  0.7466871E-06  0.4062500E+01  0.4908094E-02  0.1204469E-04  0.4062500E+01  0.5068942E-02  0.1284709E-04  0.4062500E+01  0.1311502E-03  0.8600186E-08  0.4062500E+01  0.1401817E-02  0.9825461E-06  0.4062500E+01  0.4970281E-03  0.1235184E-06
  0.4114583E+01  0.2528406E-01  0.3196417E-03  0.4114583E+01  0.2945612E-02  0.4338314E-05  0.4114583E+01  0.9039143E-02  0.4085306E-04  0.4114583E+01  0.8639491E-02  0.3732040E-04  0.4114583E+01  0.1097856E-03  0.6026441E-08  0.4114583E+01  0.1058318E-02  0.5600189E-06  0.4114583E+01  0.8568348E-03  0.3670829E-06
  0.4166667E+01  0.2800296E-01  0.3920827E-03  0.4166667E+01  0.5807749E-02  0.1686497E-04  0.4166667E+01  0.1037001E-01  0.5376858E-04  0.4166667E+01  0.9845776E-02  0.4846966E-04  0.4166667E+01  0.2652632E-03  0.3518227E-07  0.4166667E+01  0.1089317E-02  0.5933054E-06  0.4166667E+01  0.4499967E-03  0.1012485E-06
  0.4218750E+01  0.2652269E-01  0.3517266E-03  0.4218750E+01  0.1298368E-02  0.8428797E-06  0.4218750E+01  0.4788078E-02  0.1146284E-04  0.4218750E+01  0.1185276E-01  0.7024399E-04  0.4218750E+01  0.6150071E-03  0.1891169E-06  0.4218750E+01  0.1076925E-02  0.5798842E-06  0.4218750E+01  0.2698751E-03  0.3641629E-07
  0.4270833E+01  0.2472967E-01  0.3057782E-03  0.4270833E+01  0.5289475E-02  0.1398927E-04  0.4270833E+01  0.1109968E-01  0.6160144E-04  0.4270833E+01  0.4325619E-02  0.9355488E-05  0.4270833E+01  0.2328201E-03  0.2710260E-07  0.4270833E+01  0.1366776E-02  0.9340389E-06  0.4270833E+01  0.1138261E-02  0.6478195E-06
  0.4322917E+01  0.2536413E-01  0.3216695E-03  0.4322917E+01  0.9519690E-03  0.4531225E-06  0.4322917E+01  0.4378224E-02  0.9584424E-05  0.4322917E+01  0.5770219E-02  0.1664771E-04  0.4322917E+01  0.6819507E-03  0.2325284E-06  0.4322917E+01  0.8528488E-03  0.3636756E-06  0.4322917E+01  0.6934456E-03  0.2404334E-06
  0.4375000E+01  0.2392553E-01  0.2862155E-03  0.4375000E+01  0.4580440E-02  0.1049022E-04  0.4375000E+01  0.3350620E-02  0.5613326E-05  0.4375000E+01  0.9801092E-02  0.4803070E-04  0.4375000E+01  0.1298094E-03  0.8425241E-08  0.4375000E+01  0.5917324E-03  0.1750737E-06  0.4375000E+01  0.3316895E-03  0.5500895E-07
  0.4427083E+01  0.2362722E-01  0.2791227E-03  0.4427083E+01  0.2521842E-02  0.3179844E-05  0.4427083E+01  0.8162162E-02  0.3331045E-04  0.4427083E+01  0.4521518E-02  0.1022206E-04  0.4427083E+01  0.4307589E-03  0.9277660E-07  0.4427083E+01  0.1518670E-02  0.1153180E-05  0.4427083E+01  0.6754067E-03  0.2280871E-06
  0.4479167E+01  0.2276698E-01  0.2591676E-03  0.4479167E+01  0.4000936E-02  0.8003744E-05  0.4479167E+01  0.1111664E-01  0.6178980E-04  0.4479167E+01  0.8306763E-02  0.3450116E-04  0.4479167E+01  0.3198121E-03  0.5113988E-07  0.4479167E+01  0.8730303E-03  0.3810910E-06  0.4479167E+01  0.6055521E-03  0.1833467E-06
  0.4531250E+01  0.2374868E-01  0.2820000E-03  0.4531250E+01  0.2623767E-02  0.3442078E-05  0.4531250E+01  0.7586736E-02  0.2877928E-04  0.4531250E+01  0.6606976E-02  0.2182607E-04  0.4531250E+01  0.5270909E-03  0.1389124E-06  0.4531250E+01  0.9912670E-03  0.4913052E-06  0.4531250E+01  0.6157060E-03  0.1895469E-06
  0.4583333E+01  0.2314226E-01  0.2677820E-03  0.4583333E+01  0.1524574E-02  0.1162163E-05  0.4583333E+01  0.3488824E-02  0.6085947E-05  0.4583333E+01  0.7103041E-02  0.2522660E-04  0.4583333E+01  0.2239979E-03  0.2508752E-07  0.4583333E+01  0.1202879E-02  0.7234590E-06  0.4583333E+01  0.4219233E-03  0.8900963E-07
  0.4635417E+01  0.2164033E-01  0.2341519E-03  0.4635417E+01  0.2868598E-03  0.4114428E-07  0.4635417E+01  0.5745108E-02  0.1650313E-04  0.4635417E+01  0.1811369E-02  0.1640529E-05  0.4635417E+01  0.4012927E-03  0.8051790E-07  0.4635417E+01  0.7241662E-03  0.2622083E-06  0.4635417E+01  0.4031147E-03  0.8125071E-07
  0.4687500E+01  0.2204754E-01  0.2430470E-03  0.4687500E+01  0.4419152E-03  0.9764452E-07  0.4687500E+01  0.3223872E-02  0.5196675E-05  0.4687500E+01  0.7278990E-02  0.2649185E-04  0.4687500E+01  0.1782505E-03  0.1588662E-07  0.4687500E+01  0.8954317E-03  0.4008990E-06  0.4687500E+01  0.5003260E-03  0.1251631E-06
  0.4739583E+01  0.2316678E-01  0.2683497E-03  0.4739583E+01  0.4417213E-02  0.9755887E-05  0.4739583E+01  0.6483338E-02  0.2101684E-04  0.4739583E+01  0.1139911E-01  0.6496989E-04  0.4739583E+01  0.2220328E-03  0.2464928E-07  0.4739583E+01  0.3661937E-03  0.6704892E-07  0.4739583E+01  0.1565325E-03  0.1225121E-07
  0.4791667E+01  0.2041287E-01  0.2083427E-03  0.4791667E+01  0.1474554E-02  0.1087155E-05  0.4791667E+01  0.5043889E-02  0.1272041E-04  0.4791667E+01  0.8027399E-02  0.3221957E-04  0.4791667E+01  0.3430332E-03  0.5883589E-07  0.4791667E+01  0.5404950E-03  0.1460674E-06  0.4791667E+01  0.4650379E-03  0.1081301E-06