TITLE = "PITCH AND HEAVE TRANSFER FUNCTION DATA FOR MODEL 5512 WO BILGE KEELS"
VARIABLES = f, fe, xa, xph, ya, yph, za, zph, rolla, rollph, pitcha, pitchph, yawa, yawph, U_f_e, U_TF_x5, U_gamma_x5, U_TF_x3, U_gamma_x3
ZONE T="Fr=0.410,  Ak=0.025", i=    7, j=  1, k=  1, F=POINT
  0.8810000E+00  0.1991800E+01  0.0000000E+00  0.0000000E+00  0.0000000E+00  0.0000000E+00  0.4722760E-01 -0.2275360E+02  0.0000000E+00  0.0000000E+00  0.2656591E-01 -0.2381968E+03  0.0000000E+00  0.0000000E+00  0.0000000E+00  0.0000000E+00  0.0000000E+00  0.0000000E+00  0.0000000E+00
  0.8052000E+00  0.1738800E+01  0.0000000E+00  0.0000000E+00  0.0000000E+00  0.0000000E+00  0.1228639E+00 -0.8122214E+02  0.0000000E+00  0.0000000E+00  0.1102922E+00 -0.2281504E+03  0.0000000E+00  0.0000000E+00  0.0000000E+00  0.0000000E+00  0.0000000E+00  0.0000000E+00  0.0000000E+00
  0.7157000E+00  0.1457200E+01  0.0000000E+00  0.0000000E+00  0.0000000E+00  0.0000000E+00  0.5219153E+00 -0.8414587E+02  0.0000000E+00  0.0000000E+00  0.3541148E+00 -0.2106224E+03  0.0000000E+00  0.0000000E+00  0.0000000E+00  0.0000000E+00  0.0000000E+00  0.0000000E+00  0.0000000E+00
  0.6645000E+00  0.1303200E+01  0.0000000E+00  0.0000000E+00  0.0000000E+00  0.0000000E+00  0.1001918E+01 -0.6365023E+02  0.0000000E+00  0.0000000E+00  0.6330339E+00 -0.1946960E+03  0.0000000E+00  0.0000000E+00  0.0000000E+00  0.0000000E+00  0.0000000E+00  0.0000000E+00  0.0000000E+00
  0.6093000E+00  0.1144800E+01  0.0000000E+00  0.0000000E+00  0.0000000E+00  0.0000000E+00  0.1379235E+01 -0.3200338E+02  0.0000000E+00  0.0000000E+00  0.1017073E+01 -0.1677000E+03  0.0000000E+00  0.0000000E+00  0.0000000E+00  0.0000000E+00  0.0000000E+00  0.0000000E+00  0.0000000E+00
  0.5844000E+00  0.1076600E+01  0.0000000E+00  0.0000000E+00  0.0000000E+00  0.0000000E+00  0.1366239E+01 -0.1895855E+02  0.0000000E+00  0.0000000E+00  0.1141237E+01 -0.1537402E+03  0.0000000E+00  0.0000000E+00  0.0000000E+00  0.0000000E+00  0.0000000E+00  0.0000000E+00  0.0000000E+00
  0.4719000E+00  0.7972000E+00  0.0000000E+00  0.0000000E+00  0.0000000E+00  0.0000000E+00  0.1068667E+01 -0.1150477E+01  0.0000000E+00  0.0000000E+00  0.1089829E+01 -0.1138681E+03  0.0000000E+00  0.0000000E+00  0.0000000E+00  0.0000000E+00  0.0000000E+00  0.0000000E+00  0.0000000E+00
