TITLE = "PITCH AND HEAVE TRANSFER FUNCTION DATA FOR MODEL 5512 WO BILGE KEELS"
VARIABLES = f, fe, xa, xph, ya, yph, za, zph, rolla, rollph, pitcha, pitchph, yawa, yawph, U_f_e, U_TF_x5, U_gamma_x5, U_TF_x3, U_gamma_x3
ZONE T="Fr=0.190,  Ak=0.050", i=    9, j=  1, k=  1, F=POINT
  0.1012200E+01  0.1692600E+01  0.0000000E+00  0.0000000E+00  0.0000000E+00  0.0000000E+00  0.9378689E-01  0.4563259E+02  0.0000000E+00  0.0000000E+00  0.3378660E-01 -0.7496600E+02  0.0000000E+00  0.0000000E+00  0.0000000E+00  0.0000000E+00  0.0000000E+00  0.0000000E+00  0.0000000E+00
  0.9240000E+00  0.1494600E+01  0.0000000E+00  0.0000000E+00  0.0000000E+00  0.0000000E+00  0.1709446E+00  0.3554195E+02  0.0000000E+00  0.0000000E+00  0.2800450E-01 -0.1314526E+03  0.0000000E+00  0.0000000E+00  0.0000000E+00  0.0000000E+00  0.0000000E+00  0.0000000E+00  0.0000000E+00
  0.8810000E+00  0.1400000E+01  0.0000000E+00  0.0000000E+00  0.0000000E+00  0.0000000E+00  0.1957416E+00  0.2493115E+02  0.0000000E+00  0.0000000E+00  0.6465110E-01 -0.1763964E+03  0.0000000E+00  0.0000000E+00  0.0000000E+00  0.0000000E+00  0.0000000E+00  0.0000000E+00  0.0000000E+00
  0.8320000E+00  0.1296600E+01  0.0000000E+00  0.0000000E+00  0.0000000E+00  0.0000000E+00  0.2608001E+00  0.7083316E+01  0.0000000E+00  0.0000000E+00  0.1692841E+00 -0.1780070E+03  0.0000000E+00  0.0000000E+00  0.0000000E+00  0.0000000E+00  0.0000000E+00  0.0000000E+00  0.0000000E+00
  0.7809000E+00  0.1188800E+01  0.0000000E+00  0.0000000E+00  0.0000000E+00  0.0000000E+00  0.4159178E+00 -0.4310380E+01  0.0000000E+00  0.0000000E+00  0.3455910E+00 -0.1709635E+03  0.0000000E+00  0.0000000E+00  0.0000000E+00  0.0000000E+00  0.0000000E+00  0.0000000E+00  0.0000000E+00
  0.7157000E+00  0.1059000E+01  0.0000000E+00  0.0000000E+00  0.0000000E+00  0.0000000E+00  0.5991883E+00  0.4239601E+00  0.0000000E+00  0.0000000E+00  0.6057236E+00 -0.1507347E+03  0.0000000E+00  0.0000000E+00  0.0000000E+00  0.0000000E+00  0.0000000E+00  0.0000000E+00  0.0000000E+00
  0.6326000E+00  0.9006000E+00  0.0000000E+00  0.0000000E+00  0.0000000E+00  0.0000000E+00  0.7426688E+00  0.4489722E+01  0.0000000E+00  0.0000000E+00  0.8087283E+00 -0.1282032E+03  0.0000000E+00  0.0000000E+00  0.0000000E+00  0.0000000E+00  0.0000000E+00  0.0000000E+00  0.0000000E+00
  0.5844000E+00  0.8104000E+00  0.0000000E+00  0.0000000E+00  0.0000000E+00  0.0000000E+00  0.7760383E+00  0.3523879E+01  0.0000000E+00  0.0000000E+00  0.9289207E+00 -0.1220553E+03  0.0000000E+00  0.0000000E+00  0.0000000E+00  0.0000000E+00  0.0000000E+00  0.0000000E+00  0.0000000E+00
  0.5192000E+00  0.6982000E+00  0.0000000E+00  0.0000000E+00  0.0000000E+00  0.0000000E+00  0.8847898E+00 -0.5852550E+00  0.0000000E+00  0.0000000E+00  0.1027397E+01 -0.1075841E+03  0.0000000E+00  0.0000000E+00  0.0000000E+00  0.0000000E+00  0.0000000E+00  0.0000000E+00  0.0000000E+00
