TITLE = "PITCH AND HEAVE TRANSFER FUNCTION DATA FOR MODEL 5512 WO BILGE KEELS"
VARIABLES = f, fe, xa, xph, ya, yph, za, zph, rolla, rollph, pitcha, pitchph, yawa, yawph, U_f_e, U_TF_x5, U_gamma_x5, U_TF_x3, U_gamma_x3
ZONE T="Fr=0.410,  Ak=0.075", i=    2, j=  1, k=  1, F=POINT
  0.8810000E+00  0.1998400E+01  0.0000000E+00  0.0000000E+00  0.0000000E+00  0.0000000E+00  0.4226278E-01 -0.2389308E+02  0.0000000E+00  0.0000000E+00  0.2393587E-01  0.1240436E+03  0.0000000E+00  0.0000000E+00  0.0000000E+00  0.0000000E+00  0.0000000E+00  0.0000000E+00  0.0000000E+00
  0.8052000E+00  0.1738800E+01  0.0000000E+00  0.0000000E+00  0.0000000E+00  0.0000000E+00  0.1120084E+00 -0.9185946E+02  0.0000000E+00  0.0000000E+00  0.1070729E+00  0.1324287E+03  0.0000000E+00  0.0000000E+00  0.0000000E+00  0.0000000E+00  0.0000000E+00  0.0000000E+00  0.0000000E+00
