TITLE = "PITCH AND HEAVE TRANSFER FUNCTION DATA FOR MODEL 5512 WO BILGE KEELS"
VARIABLES = f, fe, xa, xph, ya, yph, za, zph, rolla, rollph, pitcha, pitchph, yawa, yawph, U_f_e, U_TF_x5, U_gamma_x5, U_TF_x3, U_gamma_x3
ZONE T="Fr=0.340,  Ak=0.050", i=    3, j=  1, k=  1, F=POINT
  0.7382000E+00  0.1386800E+01  0.0000000E+00  0.0000000E+00  0.0000000E+00  0.0000000E+00  0.4935514E+00 -0.6664088E+02  0.0000000E+00  0.0000000E+00  0.3526822E+00 -0.2050800E+03  0.0000000E+00  0.0000000E+00  0.0000000E+00  0.0000000E+00  0.0000000E+00  0.0000000E+00  0.0000000E+00
  0.7157000E+00  0.1325200E+01  0.0000000E+00  0.0000000E+00  0.0000000E+00  0.0000000E+00  0.6707855E+00 -0.6163554E+02  0.0000000E+00  0.0000000E+00  0.4595137E+00 -0.1986045E+03  0.0000000E+00  0.0000000E+00  0.0000000E+00  0.0000000E+00  0.0000000E+00  0.0000000E+00  0.0000000E+00
  0.6645000E+00  0.1191000E+01  0.0000000E+00  0.0000000E+00  0.0000000E+00  0.0000000E+00  0.1055398E+01 -0.3892451E+02  0.0000000E+00  0.0000000E+00  0.7605245E+00 -0.1781594E+03  0.0000000E+00  0.0000000E+00  0.0000000E+00  0.0000000E+00  0.0000000E+00  0.0000000E+00  0.0000000E+00
