TITLE = "PITCH AND HEAVE TRANSFER FUNCTION DATA FOR MODEL 5512 WO BILGE KEELS"
VARIABLES = f, fe, xa, xph, ya, yph, za, zph, rolla, rollph, pitcha, pitchph, yawa, yawph, U_f_e, U_TF_x5, U_gamma_x5, U_TF_x3, U_gamma_x3
ZONE T="Fr=0.410,  Ak=0.050", i=    4, j=  1, k=  1, F=POINT
  0.8810000E+00  0.2002800E+01  0.0000000E+00  0.0000000E+00  0.0000000E+00  0.0000000E+00  0.5058382E-01 -0.2297361E+02  0.0000000E+00  0.0000000E+00  0.2268022E-01 -0.2337813E+03  0.0000000E+00  0.0000000E+00  0.0000000E+00  0.0000000E+00  0.0000000E+00  0.0000000E+00  0.0000000E+00
  0.8052000E+00  0.1736600E+01  0.0000000E+00  0.0000000E+00  0.0000000E+00  0.0000000E+00  0.1199580E+00 -0.8744300E+02  0.0000000E+00  0.0000000E+00  0.1110423E+00 -0.2307307E+03  0.0000000E+00  0.0000000E+00  0.0000000E+00  0.0000000E+00  0.0000000E+00  0.0000000E+00  0.0000000E+00
  0.7157000E+00  0.1448400E+01  0.0000000E+00  0.0000000E+00  0.0000000E+00  0.0000000E+00  0.5352167E+00 -0.8874425E+02  0.0000000E+00  0.0000000E+00  0.3474676E+00 -0.2128618E+03  0.0000000E+00  0.0000000E+00  0.0000000E+00  0.0000000E+00  0.0000000E+00  0.0000000E+00  0.0000000E+00
  0.6645000E+00  0.1301000E+01  0.0000000E+00  0.0000000E+00  0.0000000E+00  0.0000000E+00  0.9755930E+00 -0.6853078E+02  0.0000000E+00  0.0000000E+00  0.5965113E+00 -0.1965067E+03  0.0000000E+00  0.0000000E+00  0.0000000E+00  0.0000000E+00  0.0000000E+00  0.0000000E+00  0.0000000E+00
