TITLE = "PITCH AND HEAVE WAVE ANALYSIS DATA FOR MODEL 5512 WO BILGE KEELS"
VARIABLES = zeta_1, zeta_2, zeta_3, kzeta_1, zeta_2/zeta_1, zeta_3/zeta_1
ZONE T="ExperimentFr=0.410,   Ak=0.075", i=    2, j=  1,k=  1, F=POINT
  0.2212672E+02  0.2574465E+03  0.6852873E+05  0.6940260E-01  0.3649459E-01  0.3047002E-01
  0.2699010E+02  0.5537927E+03  0.1911632E+06  0.7065959E-01  0.5371672E-01  0.4854374E-01
ZONE T="StokesFr=0.410,   Ak=0.075", i=  200, j=  1, k=  1, F=POINT
  0.0000000E+00  0.0000000E+00  0.0000000E+00  0.0000000E+00  0.0000000E+00  0.0000000E+00
  0.5000000E+00  0.1250000E+00  0.4687500E-01  0.0000000E+00  0.0000000E+00  0.0000000E+00
  0.1000000E+01  0.5000000E+00  0.3750000E+00  0.0000000E+00  0.0000000E+00  0.0000000E+00
  0.1500000E+01  0.1125000E+01  0.1265625E+01  0.0000000E+00  0.0000000E+00  0.0000000E+00
  0.2000000E+01  0.2000000E+01  0.3000000E+01  0.0000000E+00  0.0000000E+00  0.0000000E+00
  0.2500000E+01  0.3125000E+01  0.5859375E+01  0.0000000E+00  0.0000000E+00  0.0000000E+00
  0.3000000E+01  0.4500000E+01  0.1012500E+02  0.0000000E+00  0.0000000E+00  0.0000000E+00
  0.3500000E+01  0.6125000E+01  0.1607812E+02  0.0000000E+00  0.0000000E+00  0.0000000E+00
  0.4000000E+01  0.8000000E+01  0.2400000E+02  0.0000000E+00  0.0000000E+00  0.0000000E+00
  0.4500000E+01  0.1012500E+02  0.3417187E+02  0.0000000E+00  0.0000000E+00  0.0000000E+00
  0.5000000E+01  0.1250000E+02  0.4687500E+02  0.0000000E+00  0.0000000E+00  0.0000000E+00
  0.5500000E+01  0.1512500E+02  0.6239062E+02  0.0000000E+00  0.0000000E+00  0.0000000E+00
  0.6000000E+01  0.1800000E+02  0.8100000E+02  0.0000000E+00  0.0000000E+00  0.0000000E+00
  0.6500000E+01  0.2112500E+02  0.1029844E+03  0.0000000E+00  0.0000000E+00  0.0000000E+00
  0.7000000E+01  0.2450000E+02  0.1286250E+03  0.0000000E+00  0.0000000E+00  0.0000000E+00
  0.7500000E+01  0.2812500E+02  0.1582031E+03  0.0000000E+00  0.0000000E+00  0.0000000E+00
  0.8000000E+01  0.3200000E+02  0.1920000E+03  0.0000000E+00  0.0000000E+00  0.0000000E+00
  0.8500000E+01  0.3612500E+02  0.2302969E+03  0.0000000E+00  0.0000000E+00  0.0000000E+00
  0.9000000E+01  0.4050000E+02  0.2733750E+03  0.0000000E+00  0.0000000E+00  0.0000000E+00
  0.9500000E+01  0.4512500E+02  0.3215156E+03  0.0000000E+00  0.0000000E+00  0.0000000E+00
  0.1000000E+02  0.5000000E+02  0.3750000E+03  0.0000000E+00  0.0000000E+00  0.0000000E+00
  0.1050000E+02  0.5512500E+02  0.4341094E+03  0.0000000E+00  0.0000000E+00  0.0000000E+00
  0.1100000E+02  0.6050000E+02  0.4991250E+03  0.0000000E+00  0.0000000E+00  0.0000000E+00
  0.1150000E+02  0.6612500E+02  0.5703281E+03  0.0000000E+00  0.0000000E+00  0.0000000E+00
  0.1200000E+02  0.7200000E+02  0.6480000E+03  0.0000000E+00  0.0000000E+00  0.0000000E+00
  0.1250000E+02  0.7812500E+02  0.7324219E+03  0.0000000E+00  0.0000000E+00  0.0000000E+00
  0.1300000E+02  0.8450000E+02  0.8238750E+03  0.0000000E+00  0.0000000E+00  0.0000000E+00
  0.1350000E+02  0.9112500E+02  0.9226406E+03  0.0000000E+00  0.0000000E+00  0.0000000E+00
  0.1400000E+02  0.9800000E+02  0.1029000E+04  0.0000000E+00  0.0000000E+00  0.0000000E+00
  0.1450000E+02  0.1051250E+03  0.1143234E+04  0.0000000E+00  0.0000000E+00  0.0000000E+00
  0.1500000E+02  0.1125000E+03  0.1265625E+04  0.0000000E+00  0.0000000E+00  0.0000000E+00
  0.1550000E+02  0.1201250E+03  0.1396453E+04  0.0000000E+00  0.0000000E+00  0.0000000E+00
  0.1600000E+02  0.1280000E+03  0.1536000E+04  0.0000000E+00  0.0000000E+00  0.0000000E+00
  0.1650000E+02  0.1361250E+03  0.1684547E+04  0.0000000E+00  0.0000000E+00  0.0000000E+00
  0.1700000E+02  0.1445000E+03  0.1842375E+04  0.0000000E+00  0.0000000E+00  0.0000000E+00
  0.1750000E+02  0.1531250E+03  0.2009766E+04  0.0000000E+00  0.0000000E+00  0.0000000E+00
  0.1800000E+02  0.1620000E+03  0.2187000E+04  0.0000000E+00  0.0000000E+00  0.0000000E+00
  0.1850000E+02  0.1711250E+03  0.2374359E+04  0.0000000E+00  0.0000000E+00  0.0000000E+00
  0.1900000E+02  0.1805000E+03  0.2572125E+04  0.0000000E+00  0.0000000E+00  0.0000000E+00
  0.1950000E+02  0.1901250E+03  0.2780578E+04  0.0000000E+00  0.0000000E+00  0.0000000E+00
  0.2000000E+02  0.2000000E+03  0.3000000E+04  0.0000000E+00  0.0000000E+00  0.0000000E+00
  0.2050000E+02  0.2101250E+03  0.3230672E+04  0.0000000E+00  0.0000000E+00  0.0000000E+00
  0.2100000E+02  0.2205000E+03  0.3472875E+04  0.0000000E+00  0.0000000E+00  0.0000000E+00
  0.2150000E+02  0.2311250E+03  0.3726891E+04  0.0000000E+00  0.0000000E+00  0.0000000E+00
  0.2200000E+02  0.2420000E+03  0.3993000E+04  0.0000000E+00  0.0000000E+00  0.0000000E+00
  0.2250000E+02  0.2531250E+03  0.4271484E+04  0.0000000E+00  0.0000000E+00  0.0000000E+00
  0.2300000E+02  0.2645000E+03  0.4562625E+04  0.0000000E+00  0.0000000E+00  0.0000000E+00
  0.2350000E+02  0.2761250E+03  0.4866703E+04  0.0000000E+00  0.0000000E+00  0.0000000E+00
  0.2400000E+02  0.2880000E+03  0.5184000E+04  0.0000000E+00  0.0000000E+00  0.0000000E+00
  0.2450000E+02  0.3001250E+03  0.5514797E+04  0.0000000E+00  0.0000000E+00  0.0000000E+00
  0.2500000E+02  0.3125000E+03  0.5859375E+04  0.0000000E+00  0.0000000E+00  0.0000000E+00
  0.2550000E+02  0.3251250E+03  0.6218016E+04  0.0000000E+00  0.0000000E+00  0.0000000E+00
  0.2600000E+02  0.3380000E+03  0.6591000E+04  0.0000000E+00  0.0000000E+00  0.0000000E+00
  0.2650000E+02  0.3511250E+03  0.6978609E+04  0.0000000E+00  0.0000000E+00  0.0000000E+00
  0.2700000E+02  0.3645000E+03  0.7381125E+04  0.0000000E+00  0.0000000E+00  0.0000000E+00
  0.2750000E+02  0.3781250E+03  0.7798828E+04  0.0000000E+00  0.0000000E+00  0.0000000E+00
  0.2800000E+02  0.3920000E+03  0.8232000E+04  0.0000000E+00  0.0000000E+00  0.0000000E+00
  0.2850000E+02  0.4061250E+03  0.8680922E+04  0.0000000E+00  0.0000000E+00  0.0000000E+00
  0.2900000E+02  0.4205000E+03  0.9145875E+04  0.0000000E+00  0.0000000E+00  0.0000000E+00
  0.2950000E+02  0.4351250E+03  0.9627141E+04  0.0000000E+00  0.0000000E+00  0.0000000E+00
  0.3000000E+02  0.4500000E+03  0.1012500E+05  0.0000000E+00  0.0000000E+00  0.0000000E+00
  0.3050000E+02  0.4651250E+03  0.1063973E+05  0.0000000E+00  0.0000000E+00  0.0000000E+00
  0.3100000E+02  0.4805000E+03  0.1117162E+05  0.0000000E+00  0.0000000E+00  0.0000000E+00
  0.3150000E+02  0.4961250E+03  0.1172095E+05  0.0000000E+00  0.0000000E+00  0.0000000E+00
  0.3200000E+02  0.5120000E+03  0.1228800E+05  0.0000000E+00  0.0000000E+00  0.0000000E+00
  0.3250000E+02  0.5281250E+03  0.1287305E+05  0.0000000E+00  0.0000000E+00  0.0000000E+00
  0.3300000E+02  0.5445000E+03  0.1347637E+05  0.0000000E+00  0.0000000E+00  0.0000000E+00
  0.3350000E+02  0.5611250E+03  0.1409827E+05  0.0000000E+00  0.0000000E+00  0.0000000E+00
  0.3400000E+02  0.5780000E+03  0.1473900E+05  0.0000000E+00  0.0000000E+00  0.0000000E+00
  0.3450000E+02  0.5951250E+03  0.1539886E+05  0.0000000E+00  0.0000000E+00  0.0000000E+00
  0.3500000E+02  0.6125000E+03  0.1607812E+05  0.0000000E+00  0.0000000E+00  0.0000000E+00
  0.3550000E+02  0.6301250E+03  0.1677708E+05  0.0000000E+00  0.0000000E+00  0.0000000E+00
  0.3600000E+02  0.6480000E+03  0.1749600E+05  0.0000000E+00  0.0000000E+00  0.0000000E+00
  0.3650000E+02  0.6661250E+03  0.1823517E+05  0.0000000E+00  0.0000000E+00  0.0000000E+00
  0.3700000E+02  0.6845000E+03  0.1899487E+05  0.0000000E+00  0.0000000E+00  0.0000000E+00
  0.3750000E+02  0.7031250E+03  0.1977539E+05  0.0000000E+00  0.0000000E+00  0.0000000E+00
  0.3800000E+02  0.7220000E+03  0.2057700E+05  0.0000000E+00  0.0000000E+00  0.0000000E+00
  0.3850000E+02  0.7411250E+03  0.2139998E+05  0.0000000E+00  0.0000000E+00  0.0000000E+00
  0.3900000E+02  0.7605000E+03  0.2224462E+05  0.0000000E+00  0.0000000E+00  0.0000000E+00
  0.3950000E+02  0.7801250E+03  0.2311120E+05  0.0000000E+00  0.0000000E+00  0.0000000E+00
  0.4000000E+02  0.8000000E+03  0.2400000E+05  0.0000000E+00  0.0000000E+00  0.0000000E+00
  0.4050000E+02  0.8201250E+03  0.2491130E+05  0.0000000E+00  0.0000000E+00  0.0000000E+00
  0.4100000E+02  0.8405000E+03  0.2584537E+05  0.0000000E+00  0.0000000E+00  0.0000000E+00
  0.4150000E+02  0.8611250E+03  0.2680252E+05  0.0000000E+00  0.0000000E+00  0.0000000E+00
  0.4200000E+02  0.8820000E+03  0.2778300E+05  0.0000000E+00  0.0000000E+00  0.0000000E+00
  0.4250000E+02  0.9031250E+03  0.2878711E+05  0.0000000E+00  0.0000000E+00  0.0000000E+00
  0.4300000E+02  0.9245000E+03  0.2981512E+05  0.0000000E+00  0.0000000E+00  0.0000000E+00
  0.4350000E+02  0.9461250E+03  0.3086733E+05  0.0000000E+00  0.0000000E+00  0.0000000E+00
  0.4400000E+02  0.9680000E+03  0.3194400E+05  0.0000000E+00  0.0000000E+00  0.0000000E+00
  0.4450000E+02  0.9901250E+03  0.3304542E+05  0.0000000E+00  0.0000000E+00  0.0000000E+00
  0.4500000E+02  0.1012500E+04  0.3417187E+05  0.0000000E+00  0.0000000E+00  0.0000000E+00
  0.4550000E+02  0.1035125E+04  0.3532364E+05  0.0000000E+00  0.0000000E+00  0.0000000E+00
  0.4600000E+02  0.1058000E+04  0.3650100E+05  0.0000000E+00  0.0000000E+00  0.0000000E+00
  0.4650000E+02  0.1081125E+04  0.3770423E+05  0.0000000E+00  0.0000000E+00  0.0000000E+00
  0.4700000E+02  0.1104500E+04  0.3893362E+05  0.0000000E+00  0.0000000E+00  0.0000000E+00
  0.4750000E+02  0.1128125E+04  0.4018945E+05  0.0000000E+00  0.0000000E+00  0.0000000E+00
  0.4800000E+02  0.1152000E+04  0.4147200E+05  0.0000000E+00  0.0000000E+00  0.0000000E+00
  0.4850000E+02  0.1176125E+04  0.4278155E+05  0.0000000E+00  0.0000000E+00  0.0000000E+00
  0.4900000E+02  0.1200500E+04  0.4411837E+05  0.0000000E+00  0.0000000E+00  0.0000000E+00
  0.4950000E+02  0.1225125E+04  0.4548277E+05  0.0000000E+00  0.0000000E+00  0.0000000E+00
  0.5000000E+02  0.1250000E+04  0.4687500E+05  0.0000000E+00  0.0000000E+00  0.0000000E+00
  0.5050000E+02  0.1275125E+04  0.4829536E+05  0.0000000E+00  0.0000000E+00  0.0000000E+00
  0.5100000E+02  0.1300500E+04  0.4974412E+05  0.0000000E+00  0.0000000E+00  0.0000000E+00
  0.5150000E+02  0.1326125E+04  0.5122158E+05  0.0000000E+00  0.0000000E+00  0.0000000E+00
  0.5200000E+02  0.1352000E+04  0.5272800E+05  0.0000000E+00  0.0000000E+00  0.0000000E+00
  0.5250000E+02  0.1378125E+04  0.5426367E+05  0.0000000E+00  0.0000000E+00  0.0000000E+00
  0.5300000E+02  0.1404500E+04  0.5582887E+05  0.0000000E+00  0.0000000E+00  0.0000000E+00
  0.5350000E+02  0.1431125E+04  0.5742389E+05  0.0000000E+00  0.0000000E+00  0.0000000E+00
  0.5400000E+02  0.1458000E+04  0.5904900E+05  0.0000000E+00  0.0000000E+00  0.0000000E+00
  0.5450000E+02  0.1485125E+04  0.6070448E+05  0.0000000E+00  0.0000000E+00  0.0000000E+00
  0.5500000E+02  0.1512500E+04  0.6239062E+05  0.0000000E+00  0.0000000E+00  0.0000000E+00
  0.5550000E+02  0.1540125E+04  0.6410770E+05  0.0000000E+00  0.0000000E+00  0.0000000E+00
  0.5600000E+02  0.1568000E+04  0.6585600E+05  0.0000000E+00  0.0000000E+00  0.0000000E+00
  0.5650000E+02  0.1596125E+04  0.6763580E+05  0.0000000E+00  0.0000000E+00  0.0000000E+00
  0.5700000E+02  0.1624500E+04  0.6944737E+05  0.0000000E+00  0.0000000E+00  0.0000000E+00
  0.5750000E+02  0.1653125E+04  0.7129102E+05  0.0000000E+00  0.0000000E+00  0.0000000E+00
  0.5800000E+02  0.1682000E+04  0.7316700E+05  0.0000000E+00  0.0000000E+00  0.0000000E+00
  0.5850000E+02  0.1711125E+04  0.7507561E+05  0.0000000E+00  0.0000000E+00  0.0000000E+00
  0.5900000E+02  0.1740500E+04  0.7701712E+05  0.0000000E+00  0.0000000E+00  0.0000000E+00
  0.5950000E+02  0.1770125E+04  0.7899183E+05  0.0000000E+00  0.0000000E+00  0.0000000E+00
  0.6000000E+02  0.1800000E+04  0.8100000E+05  0.0000000E+00  0.0000000E+00  0.0000000E+00
  0.6050000E+02  0.1830125E+04  0.8304192E+05  0.0000000E+00  0.0000000E+00  0.0000000E+00
  0.6100000E+02  0.1860500E+04  0.8511787E+05  0.0000000E+00  0.0000000E+00  0.0000000E+00
  0.6150000E+02  0.1891125E+04  0.8722814E+05  0.0000000E+00  0.0000000E+00  0.0000000E+00
  0.6200000E+02  0.1922000E+04  0.8937300E+05  0.0000000E+00  0.0000000E+00  0.0000000E+00
  0.6250000E+02  0.1953125E+04  0.9155273E+05  0.0000000E+00  0.0000000E+00  0.0000000E+00
  0.6300000E+02  0.1984500E+04  0.9376762E+05  0.0000000E+00  0.0000000E+00  0.0000000E+00
  0.6350000E+02  0.2016125E+04  0.9601795E+05  0.0000000E+00  0.0000000E+00  0.0000000E+00
  0.6400000E+02  0.2048000E+04  0.9830400E+05  0.0000000E+00  0.0000000E+00  0.0000000E+00
  0.6450000E+02  0.2080125E+04  0.1006260E+06  0.0000000E+00  0.0000000E+00  0.0000000E+00
  0.6500000E+02  0.2112500E+04  0.1029844E+06  0.0000000E+00  0.0000000E+00  0.0000000E+00
  0.6550000E+02  0.2145125E+04  0.1053793E+06  0.0000000E+00  0.0000000E+00  0.0000000E+00
  0.6600000E+02  0.2178000E+04  0.1078110E+06  0.0000000E+00  0.0000000E+00  0.0000000E+00
  0.6650000E+02  0.2211125E+04  0.1102799E+06  0.0000000E+00  0.0000000E+00  0.0000000E+00
  0.6700000E+02  0.2244500E+04  0.1127861E+06  0.0000000E+00  0.0000000E+00  0.0000000E+00
  0.6750000E+02  0.2278125E+04  0.1153301E+06  0.0000000E+00  0.0000000E+00  0.0000000E+00
  0.6800000E+02  0.2312000E+04  0.1179120E+06  0.0000000E+00  0.0000000E+00  0.0000000E+00
  0.6850000E+02  0.2346125E+04  0.1205322E+06  0.0000000E+00  0.0000000E+00  0.0000000E+00
  0.6900000E+02  0.2380500E+04  0.1231909E+06  0.0000000E+00  0.0000000E+00  0.0000000E+00
  0.6950000E+02  0.2415125E+04  0.1258884E+06  0.0000000E+00  0.0000000E+00  0.0000000E+00
  0.7000000E+02  0.2450000E+04  0.1286250E+06  0.0000000E+00  0.0000000E+00  0.0000000E+00
  0.7050000E+02  0.2485125E+04  0.1314010E+06  0.0000000E+00  0.0000000E+00  0.0000000E+00
  0.7100000E+02  0.2520500E+04  0.1342166E+06  0.0000000E+00  0.0000000E+00  0.0000000E+00
  0.7150000E+02  0.2556125E+04  0.1370722E+06  0.0000000E+00  0.0000000E+00  0.0000000E+00
  0.7200000E+02  0.2592000E+04  0.1399680E+06  0.0000000E+00  0.0000000E+00  0.0000000E+00
  0.7250000E+02  0.2628125E+04  0.1429043E+06  0.0000000E+00  0.0000000E+00  0.0000000E+00
  0.7300000E+02  0.2664500E+04  0.1458814E+06  0.0000000E+00  0.0000000E+00  0.0000000E+00
  0.7350000E+02  0.2701125E+04  0.1488995E+06  0.0000000E+00  0.0000000E+00  0.0000000E+00
  0.7400000E+02  0.2738000E+04  0.1519590E+06  0.0000000E+00  0.0000000E+00  0.0000000E+00
  0.7450000E+02  0.2775125E+04  0.1550601E+06  0.0000000E+00  0.0000000E+00  0.0000000E+00
  0.7500000E+02  0.2812500E+04  0.1582031E+06  0.0000000E+00  0.0000000E+00  0.0000000E+00
  0.7550000E+02  0.2850125E+04  0.1613883E+06  0.0000000E+00  0.0000000E+00  0.0000000E+00
  0.7600000E+02  0.2888000E+04  0.1646160E+06  0.0000000E+00  0.0000000E+00  0.0000000E+00
  0.7650000E+02  0.2926125E+04  0.1678864E+06  0.0000000E+00  0.0000000E+00  0.0000000E+00
  0.7700000E+02  0.2964500E+04  0.1711999E+06  0.0000000E+00  0.0000000E+00  0.0000000E+00
  0.7750000E+02  0.3003125E+04  0.1745566E+06  0.0000000E+00  0.0000000E+00  0.0000000E+00
  0.7800000E+02  0.3042000E+04  0.1779570E+06  0.0000000E+00  0.0000000E+00  0.0000000E+00
  0.7850000E+02  0.3081125E+04  0.1814012E+06  0.0000000E+00  0.0000000E+00  0.0000000E+00
  0.7900000E+02  0.3120500E+04  0.1848896E+06  0.0000000E+00  0.0000000E+00  0.0000000E+00
  0.7950000E+02  0.3160125E+04  0.1884225E+06  0.0000000E+00  0.0000000E+00  0.0000000E+00
  0.8000000E+02  0.3200000E+04  0.1920000E+06  0.0000000E+00  0.0000000E+00  0.0000000E+00
  0.8050000E+02  0.3240125E+04  0.1956225E+06  0.0000000E+00  0.0000000E+00  0.0000000E+00
  0.8100000E+02  0.3280500E+04  0.1992904E+06  0.0000000E+00  0.0000000E+00  0.0000000E+00
  0.8150000E+02  0.3321125E+04  0.2030038E+06  0.0000000E+00  0.0000000E+00  0.0000000E+00
  0.8200000E+02  0.3362000E+04  0.2067630E+06  0.0000000E+00  0.0000000E+00  0.0000000E+00
  0.8250000E+02  0.3403125E+04  0.2105684E+06  0.0000000E+00  0.0000000E+00  0.0000000E+00
  0.8300000E+02  0.3444500E+04  0.2144201E+06  0.0000000E+00  0.0000000E+00  0.0000000E+00
  0.8350000E+02  0.3486125E+04  0.2183186E+06  0.0000000E+00  0.0000000E+00  0.0000000E+00
  0.8400000E+02  0.3528000E+04  0.2222640E+06  0.0000000E+00  0.0000000E+00  0.0000000E+00
  0.8450000E+02  0.3570125E+04  0.2262567E+06  0.0000000E+00  0.0000000E+00  0.0000000E+00
  0.8500000E+02  0.3612500E+04  0.2302969E+06  0.0000000E+00  0.0000000E+00  0.0000000E+00
  0.8550000E+02  0.3655125E+04  0.2343849E+06  0.0000000E+00  0.0000000E+00  0.0000000E+00
  0.8600000E+02  0.3698000E+04  0.2385210E+06  0.0000000E+00  0.0000000E+00  0.0000000E+00
  0.8650000E+02  0.3741125E+04  0.2427055E+06  0.0000000E+00  0.0000000E+00  0.0000000E+00
  0.8700000E+02  0.3784500E+04  0.2469386E+06  0.0000000E+00  0.0000000E+00  0.0000000E+00
  0.8750000E+02  0.3828125E+04  0.2512207E+06  0.0000000E+00  0.0000000E+00  0.0000000E+00
  0.8800000E+02  0.3872000E+04  0.2555520E+06  0.0000000E+00  0.0000000E+00  0.0000000E+00
  0.8850000E+02  0.3916125E+04  0.2599328E+06  0.0000000E+00  0.0000000E+00  0.0000000E+00
  0.8900000E+02  0.3960500E+04  0.2643634E+06  0.0000000E+00  0.0000000E+00  0.0000000E+00
  0.8950000E+02  0.4005125E+04  0.2688440E+06  0.0000000E+00  0.0000000E+00  0.0000000E+00
  0.9000000E+02  0.4050000E+04  0.2733750E+06  0.0000000E+00  0.0000000E+00  0.0000000E+00
  0.9050000E+02  0.4095125E+04  0.2779566E+06  0.0000000E+00  0.0000000E+00  0.0000000E+00
  0.9100000E+02  0.4140500E+04  0.2825891E+06  0.0000000E+00  0.0000000E+00  0.0000000E+00
  0.9150000E+02  0.4186125E+04  0.2872728E+06  0.0000000E+00  0.0000000E+00  0.0000000E+00
  0.9200000E+02  0.4232000E+04  0.2920080E+06  0.0000000E+00  0.0000000E+00  0.0000000E+00
  0.9250000E+02  0.4278125E+04  0.2967949E+06  0.0000000E+00  0.0000000E+00  0.0000000E+00
  0.9300000E+02  0.4324500E+04  0.3016339E+06  0.0000000E+00  0.0000000E+00  0.0000000E+00
  0.9350000E+02  0.4371125E+04  0.3065251E+06  0.0000000E+00  0.0000000E+00  0.0000000E+00
  0.9400000E+02  0.4418000E+04  0.3114690E+06  0.0000000E+00  0.0000000E+00  0.0000000E+00
  0.9450000E+02  0.4465125E+04  0.3164658E+06  0.0000000E+00  0.0000000E+00  0.0000000E+00
  0.9500000E+02  0.4512500E+04  0.3215156E+06  0.0000000E+00  0.0000000E+00  0.0000000E+00
  0.9550000E+02  0.4560125E+04  0.3266189E+06  0.0000000E+00  0.0000000E+00  0.0000000E+00
  0.9600000E+02  0.4608000E+04  0.3317760E+06  0.0000000E+00  0.0000000E+00  0.0000000E+00
  0.9650000E+02  0.4656125E+04  0.3369871E+06  0.0000000E+00  0.0000000E+00  0.0000000E+00
  0.9700000E+02  0.4704500E+04  0.3422524E+06  0.0000000E+00  0.0000000E+00  0.0000000E+00
  0.9750000E+02  0.4753125E+04  0.3475722E+06  0.0000000E+00  0.0000000E+00  0.0000000E+00
  0.9800000E+02  0.4802000E+04  0.3529470E+06  0.0000000E+00  0.0000000E+00  0.0000000E+00
  0.9850000E+02  0.4851125E+04  0.3583769E+06  0.0000000E+00  0.0000000E+00  0.0000000E+00
  0.9900000E+02  0.4900500E+04  0.3638621E+06  0.0000000E+00  0.0000000E+00  0.0000000E+00
  0.9950000E+02  0.4950125E+04  0.3694031E+06  0.0000000E+00  0.0000000E+00  0.0000000E+00
ZONE T="CASE3, Fr=0.410,   Ak=0.075", i=    1, j=  1,k=  1, F=POINT
  0.2212672E+02  0.2574465E+03  0.6852873E+05  0.6940260E-01  0.3649459E-01  0.3047002E-01
