TITLE = "PITCH AND HEAVE TRANSFER FUNCTION DATA FOR MODEL 5512 WO BILGE KEELS"
VARIABLES = f, fe, xa, xph, ya, yph, za, zph, rolla, rollph, pitcha, pitchph, yawa, yawph, U_f_e, U_TF_x5, U_gamma_x5, U_TF_x3, U_gamma_x3
ZONE T="Fr=0.340,  Ak=0.025", i=    7, j=  1, k=  1, F=POINT
  0.7382000E+00  0.1389000E+01  0.0000000E+00  0.0000000E+00  0.0000000E+00  0.0000000E+00  0.4986626E+00 -0.6344933E+02  0.0000000E+00  0.0000000E+00  0.3714533E+00 -0.2016777E+03  0.0000000E+00  0.0000000E+00  0.0000000E+00  0.0000000E+00  0.0000000E+00  0.0000000E+00  0.0000000E+00
  0.7157000E+00  0.1327400E+01  0.0000000E+00  0.0000000E+00  0.0000000E+00  0.0000000E+00  0.6616406E+00 -0.5915938E+02  0.0000000E+00  0.0000000E+00  0.4758704E+00 -0.1969288E+03  0.0000000E+00  0.0000000E+00  0.0000000E+00  0.0000000E+00  0.0000000E+00  0.0000000E+00  0.0000000E+00
  0.6645000E+00  0.1193200E+01  0.0000000E+00  0.0000000E+00  0.0000000E+00  0.0000000E+00  0.1018955E+01 -0.3706623E+02  0.0000000E+00  0.0000000E+00  0.7617837E+00 -0.1773410E+03  0.0000000E+00  0.0000000E+00  0.0000000E+00  0.0000000E+00  0.0000000E+00  0.0000000E+00  0.0000000E+00
  0.6277000E+00  0.1098600E+01  0.0000000E+00  0.0000000E+00  0.0000000E+00  0.0000000E+00  0.1151369E+01 -0.2081000E+02  0.0000000E+00  0.0000000E+00  0.9794487E+00 -0.1600146E+03  0.0000000E+00  0.0000000E+00  0.0000000E+00  0.0000000E+00  0.0000000E+00  0.0000000E+00  0.0000000E+00
  0.5844000E+00  0.9930000E+00  0.0000000E+00  0.0000000E+00  0.0000000E+00  0.0000000E+00  0.1117166E+01 -0.7416315E+01  0.0000000E+00  0.0000000E+00  0.1112498E+01 -0.1396575E+03  0.0000000E+00  0.0000000E+00  0.0000000E+00  0.0000000E+00  0.0000000E+00  0.0000000E+00  0.0000000E+00
  0.4999000E+00  0.7994000E+00  0.0000000E+00  0.0000000E+00  0.0000000E+00  0.0000000E+00  0.1032433E+01 -0.1185673E+01  0.0000000E+00  0.0000000E+00  0.1102233E+01 -0.1153625E+03  0.0000000E+00  0.0000000E+00  0.0000000E+00  0.0000000E+00  0.0000000E+00  0.0000000E+00  0.0000000E+00
  0.4033000E+00  0.6080000E+00  0.0000000E+00  0.0000000E+00  0.0000000E+00  0.0000000E+00  0.1013111E+01  0.2314643E+01  0.0000000E+00  0.0000000E+00  0.1001634E+01 -0.1032289E+03  0.0000000E+00  0.0000000E+00  0.0000000E+00  0.0000000E+00  0.0000000E+00  0.0000000E+00  0.0000000E+00
