TITLE = "PITCH AND HEAVE TRANSFER FUNCTION DATA FOR MODEL 5512 WO BILGE KEELS"
VARIABLES = f, fe, xa, xph, ya, yph, za, zph, rolla, rollph, pitcha, pitchph, yawa, yawph, U_f_e, U_TF_x5, U_gamma_x5, U_TF_x3, U_gamma_x3
ZONE T="Fr=0.000,  Ak=0.025", i=    7, j=  1, k=  1, F=POINT
  0.1012200E+01  0.1010600E+01  0.0000000E+00  0.0000000E+00  0.0000000E+00  0.0000000E+00  0.3746549E+00  0.8118419E+02  0.0000000E+00  0.0000000E+00  0.6682958E-01 -0.8319416E+01  0.0000000E+00  0.0000000E+00  0.0000000E+00  0.0000000E+00  0.0000000E+00  0.0000000E+00  0.0000000E+00
  0.9480000E+00  0.9490000E+00  0.0000000E+00  0.0000000E+00  0.0000000E+00  0.0000000E+00  0.1665065E+00  0.1516932E+03  0.0000000E+00  0.0000000E+00  0.6019440E-01 -0.5470541E+02  0.0000000E+00  0.0000000E+00  0.0000000E+00  0.0000000E+00  0.0000000E+00  0.0000000E+00  0.0000000E+00
  0.8494000E+00  0.8500000E+00  0.0000000E+00  0.0000000E+00  0.0000000E+00  0.0000000E+00  0.2052636E+00  0.1000907E+03  0.0000000E+00  0.0000000E+00  0.1284602E+00 -0.7089686E+02  0.0000000E+00  0.0000000E+00  0.0000000E+00  0.0000000E+00  0.0000000E+00  0.0000000E+00  0.0000000E+00
  0.7157000E+00  0.7158000E+00  0.0000000E+00  0.0000000E+00  0.0000000E+00  0.0000000E+00  0.2914816E+00  0.4335834E+02  0.0000000E+00  0.0000000E+00  0.4153550E+00 -0.1145266E+03  0.0000000E+00  0.0000000E+00  0.0000000E+00  0.0000000E+00  0.0000000E+00  0.0000000E+00  0.0000000E+00
  0.6506000E+00  0.6498000E+00  0.0000000E+00  0.0000000E+00  0.0000000E+00  0.0000000E+00  0.4903907E+00  0.1786912E+02  0.0000000E+00  0.0000000E+00  0.7118893E+00 -0.1070882E+03  0.0000000E+00  0.0000000E+00  0.0000000E+00  0.0000000E+00  0.0000000E+00  0.0000000E+00  0.0000000E+00
  0.5844000E+00  0.5838000E+00  0.0000000E+00  0.0000000E+00  0.0000000E+00  0.0000000E+00  0.6043796E+00  0.1241991E+02  0.0000000E+00  0.0000000E+00  0.7800430E+00 -0.9974905E+02  0.0000000E+00  0.0000000E+00  0.0000000E+00  0.0000000E+00  0.0000000E+00  0.0000000E+00  0.0000000E+00
  0.4001000E+00  0.4012000E+00  0.0000000E+00  0.0000000E+00  0.0000000E+00  0.0000000E+00  0.8883494E+00 -0.5592477E+01  0.0000000E+00  0.0000000E+00  0.1040313E+01 -0.1019848E+03  0.0000000E+00  0.0000000E+00  0.0000000E+00  0.0000000E+00  0.0000000E+00  0.0000000E+00  0.0000000E+00
