TITLE = "PITCH AND HEAVE SPECTRUM DATA FOR MODEL 5512 WO BILGE KEELS"
VARIABLES = fre_w, amp_w, pow_w, fre_x, amp_x, pow_x, fre_y, amp_y, pow_y, fre_z, amp_z, pow_z, fre_roll, amp_roll, pow_roll, fre_pitch, amp_pitch, pow_pitch, fre_yaw, amp_yaw, pow_yaw
ZONE T="sbak2_01, Fr=0.190,  Ak=0.050", i=  512, j=  1, k=  1, F=POINT
  0.0000000E+00  0.1247424E+01  0.7780330E+00  0.0000000E+00  0.5313231E+00  0.1411521E+00  0.0000000E+00  0.2631095E+00  0.3461330E-01  0.0000000E+00  0.3614727E+01  0.6533124E+01  0.0000000E+00  0.1415532E-01  0.1001865E-03  0.0000000E+00  0.1203217E+00  0.7238660E-02  0.0000000E+00  0.5331306E-03  0.1421141E-06
  0.5208334E-01  0.3294227E+00  0.5425965E-01  0.5208334E-01  0.4225798E-01  0.8928683E-03  0.5208334E-01  0.3461077E-01  0.5989528E-03  0.5208334E-01  0.3071858E+00  0.4718156E-01  0.5208334E-01  0.1049704E-02  0.5509389E-06  0.5208334E-01  0.8864125E-03  0.3928635E-06  0.5208334E-01  0.1426196E-02  0.1017017E-05
  0.1041667E+00  0.2190831E+00  0.2399869E-01  0.1041667E+00  0.3574062E-01  0.6386960E-03  0.1041667E+00  0.1244614E+00  0.7745322E-02  0.1041667E+00  0.1307478E+00  0.8547489E-02  0.1041667E+00  0.7936203E-02  0.3149166E-04  0.1041667E+00  0.2293212E-02  0.2629412E-05  0.1041667E+00  0.4661498E-02  0.1086478E-04
  0.1562500E+00  0.2129464E+00  0.2267309E-01  0.1562500E+00  0.3088269E-01  0.4768703E-03  0.1562500E+00  0.5692488E-01  0.1620221E-02  0.1562500E+00  0.1993103E+00  0.1986231E-01  0.1562500E+00  0.3140805E-02  0.4932327E-05  0.1562500E+00  0.1278148E-02  0.8168312E-06  0.1562500E+00  0.3113799E-02  0.4847871E-05
  0.2083333E+00  0.2382672E+00  0.2838562E-01  0.2083333E+00  0.3650169E-01  0.6661866E-03  0.2083333E+00  0.2887758E-01  0.4169573E-03  0.2083333E+00  0.1767768E+00  0.1562502E-01  0.2083333E+00  0.1831280E-02  0.1676794E-05  0.2083333E+00  0.2782506E-02  0.3871171E-05  0.2083333E+00  0.2024490E-02  0.2049280E-05
  0.2604167E+00  0.1946626E+00  0.1894676E-01  0.2604167E+00  0.1844556E-01  0.1701193E-03  0.2604167E+00  0.1493703E-01  0.1115574E-03  0.2604167E+00  0.7761834E-01  0.3012303E-02  0.2604167E+00  0.1342504E-02  0.9011579E-06  0.2604167E+00  0.5019624E-02  0.1259831E-04  0.2604167E+00  0.5772124E-03  0.1665871E-06
  0.3125000E+00  0.1984650E+00  0.1969418E-01  0.3125000E+00  0.1220223E-01  0.7444719E-04  0.3125000E+00  0.5824551E-01  0.1696269E-02  0.3125000E+00  0.9968787E-01  0.4968836E-02  0.3125000E+00  0.4336513E-02  0.9402673E-05  0.3125000E+00  0.4227865E-02  0.8937424E-05  0.3125000E+00  0.3400437E-02  0.5781485E-05
  0.3645833E+00  0.5675101E+00  0.1610338E+00  0.3645833E+00  0.1180770E-01  0.6971088E-04  0.3645833E+00  0.3496704E-01  0.6113470E-03  0.3645833E+00  0.1206343E+00  0.7276321E-02  0.3645833E+00  0.1626484E-02  0.1322725E-05  0.3645833E+00  0.9972924E-02  0.4972961E-04  0.3645833E+00  0.2036836E-02  0.2074351E-05
  0.4166667E+00  0.2768468E+00  0.3832207E-01  0.4166667E+00  0.1181909E-01  0.6984544E-04  0.4166667E+00  0.3344345E-01  0.5592323E-03  0.4166667E+00  0.1636725E-01  0.1339434E-03  0.4166667E+00  0.2556451E-02  0.3267722E-05  0.4166667E+00  0.5019281E-02  0.1259659E-04  0.4166667E+00  0.2435175E-02  0.2965039E-05
  0.4687500E+00  0.1579885E+00  0.1248018E-01  0.4687500E+00  0.8880356E-02  0.3943036E-04  0.4687500E+00  0.8134021E-02  0.3308116E-04  0.4687500E+00  0.1777156E-01  0.1579141E-03  0.4687500E+00  0.1304514E-02  0.8508781E-06  0.4687500E+00  0.4812393E-02  0.1157956E-04  0.4687500E+00  0.9559784E-03  0.4569473E-06
  0.5208334E+00  0.2229583E+00  0.2485521E-01  0.5208334E+00  0.2162465E-01  0.2338127E-03  0.5208334E+00  0.5720079E-01  0.1635965E-02  0.5208334E+00  0.4007035E-01  0.8028168E-03  0.5208334E+00  0.3461019E-02  0.5989326E-05  0.5208334E+00  0.5873325E-02  0.1724797E-04  0.5208334E+00  0.2460020E-02  0.3025849E-05
  0.5729167E+00  0.1054855E+00  0.5563595E-02  0.5729167E+00  0.1734610E-01  0.1504437E-03  0.5729167E+00  0.2388220E-01  0.2851796E-03  0.5729167E+00  0.6917975E-01  0.2392919E-02  0.5729167E+00  0.8881100E-03  0.3943697E-06  0.5729167E+00  0.3386741E-02  0.5735007E-05  0.5729167E+00  0.1396802E-02  0.9755286E-06
  0.6250001E+00  0.1093195E+00  0.5975373E-02  0.6250001E+00  0.1271328E-01  0.8081379E-04  0.6250001E+00  0.4809349E-01  0.1156492E-02  0.6250001E+00  0.3260132E-01  0.5314231E-03  0.6250001E+00  0.3592653E-02  0.6453577E-05  0.6250001E+00  0.3014066E-02  0.4542296E-05  0.6250001E+00  0.4119721E-02  0.8486049E-05
  0.6770834E+00  0.1732624E+00  0.1500993E-01  0.6770834E+00  0.1127550E-01  0.6356849E-04  0.6770834E+00  0.1219120E-01  0.7431261E-04  0.6770834E+00  0.4460598E-01  0.9948467E-03  0.6770834E+00  0.1280059E-02  0.8192761E-06  0.6770834E+00  0.9225497E-03  0.4255490E-06  0.6770834E+00  0.2405857E-02  0.2894073E-05
  0.7291667E+00  0.1112420E+00  0.6187393E-02  0.7291667E+00  0.4575752E-02  0.1046875E-04  0.7291667E+00  0.3170002E-01  0.5024457E-03  0.7291667E+00  0.9619117E-01  0.4626370E-02  0.7291667E+00  0.6395865E-03  0.2045354E-06  0.7291667E+00  0.3098834E-02  0.4801386E-05  0.7291667E+00  0.1319634E-02  0.8707175E-06
  0.7812501E+00  0.1274706E+00  0.8124383E-02  0.7812501E+00  0.1288989E-01  0.8307457E-04  0.7812501E+00  0.1928470E-01  0.1859499E-03  0.7812501E+00  0.3108081E-01  0.4830084E-03  0.7812501E+00  0.9646501E-03  0.4652750E-06  0.7812501E+00  0.4357225E-02  0.9492704E-05  0.7812501E+00  0.2328280E-02  0.2710443E-05
  0.8333334E+00  0.1081452E+00  0.5847692E-02  0.8333334E+00  0.2514365E-01  0.3161017E-03  0.8333334E+00  0.6504806E-01  0.2115625E-02  0.8333334E+00  0.1791402E+00  0.1604560E-01  0.8333334E+00  0.2769990E-02  0.3836422E-05  0.8333334E+00  0.1645955E-01  0.1354584E-03  0.8333334E+00  0.4497096E-02  0.1011194E-04
  0.8854167E+00  0.2070658E+00  0.2143813E-01  0.8854167E+00  0.4352644E-01  0.9472755E-03  0.8854167E+00  0.3828607E-01  0.7329115E-03  0.8854167E+00  0.2172740E+00  0.2360398E-01  0.8854167E+00  0.3406383E-02  0.5801722E-05  0.8854167E+00  0.9121072E-02  0.4159698E-04  0.8854167E+00  0.4060883E-02  0.8245385E-05
  0.9375001E+00  0.2517480E+00  0.3168852E-01  0.9375001E+00  0.4339433E-01  0.9415339E-03  0.9375001E+00  0.1432962E-01  0.1026690E-03  0.9375001E+00  0.1861725E+00  0.1733010E-01  0.9375001E+00  0.5817408E-03  0.1692112E-06  0.9375001E+00  0.1143171E-01  0.6534194E-04  0.9375001E+00  0.6464678E-03  0.2089603E-06
  0.9895834E+00  0.1957375E+00  0.1915658E-01  0.9895834E+00  0.4214602E-01  0.8881434E-03  0.9895834E+00  0.1258029E-01  0.7913187E-04  0.9895834E+00  0.2307430E+00  0.2662117E-01  0.9895834E+00  0.5936939E-03  0.1762362E-06  0.9895834E+00  0.7686138E-02  0.2953836E-04  0.9895834E+00  0.1152811E-02  0.6644863E-06
  0.1041667E+01  0.2741725E+00  0.3758527E-01  0.1041667E+01  0.3639895E-01  0.6624419E-03  0.1041667E+01  0.1784292E-01  0.1591848E-03  0.1041667E+01  0.2130187E+00  0.2268848E-01  0.1041667E+01  0.1436274E-02  0.1031441E-05  0.1041667E+01  0.2897370E-02  0.4197375E-05  0.1041667E+01  0.1593920E-02  0.1270290E-05
  0.1093750E+01  0.2729264E+00  0.3724441E-01  0.1093750E+01  0.4027828E-01  0.8111698E-03  0.1093750E+01  0.2713639E-01  0.3681919E-03  0.1093750E+01  0.1701566E+00  0.1447664E-01  0.1093750E+01  0.1517241E-02  0.1151010E-05  0.1093750E+01  0.5335652E-02  0.1423459E-04  0.1093750E+01  0.1354824E-02  0.9177739E-06
  0.1145833E+01  0.2323056E+00  0.2698296E-01  0.1145833E+01  0.6601259E-01  0.2178831E-02  0.1145833E+01  0.2573144E-01  0.3310535E-03  0.1145833E+01  0.3916474E+00  0.7669384E-01  0.1145833E+01  0.1128089E-02  0.6362920E-06  0.1145833E+01  0.1111219E-01  0.6174033E-04  0.1145833E+01  0.3071645E-02  0.4717500E-05
  0.1197917E+01  0.3545471E+00  0.6285182E-01  0.1197917E+01  0.5154473E-01  0.1328430E-02  0.1197917E+01  0.2099960E-01  0.2204916E-03  0.1197917E+01  0.2933592E+00  0.4302981E-01  0.1197917E+01  0.7749286E-03  0.3002572E-06  0.1197917E+01  0.1280319E-01  0.8196086E-04  0.1197917E+01  0.1618228E-02  0.1309331E-05
  0.1250000E+01  0.3867086E+00  0.7477178E-01  0.1250000E+01  0.3453197E-01  0.5962283E-03  0.1250000E+01  0.3428613E-01  0.5877695E-03  0.1250000E+01  0.1382843E+00  0.9561276E-02  0.1250000E+01  0.2640808E-02  0.3486932E-05  0.1250000E+01  0.6193411E-02  0.1917917E-04  0.1250000E+01  0.2955395E-02  0.4367182E-05
  0.1302083E+01  0.3563861E+00  0.6350553E-01  0.1302083E+01  0.1573999E-01  0.1238736E-03  0.1302083E+01  0.1933797E-01  0.1869786E-03  0.1302083E+01  0.7897853E-01  0.3118804E-02  0.1302083E+01  0.1029979E-02  0.5304286E-06  0.1302083E+01  0.3059216E-02  0.4679402E-05  0.1302083E+01  0.1913026E-02  0.1829834E-05
  0.1354167E+01  0.4321157E+00  0.9336200E-01  0.1354167E+01  0.1150053E-01  0.6613113E-04  0.1354167E+01  0.5588768E-01  0.1561716E-02  0.1354167E+01  0.7314187E-01  0.2674867E-02  0.1354167E+01  0.4955957E-02  0.1228076E-04  0.1354167E+01  0.4809591E-02  0.1156609E-04  0.1354167E+01  0.4469206E-02  0.9986902E-05
  0.1406250E+01  0.5417216E+00  0.1467312E+00  0.1406250E+01  0.1256815E-01  0.7897917E-04  0.1406250E+01  0.1725881E-01  0.1489333E-03  0.1406250E+01  0.5498014E-01  0.1511408E-02  0.1406250E+01  0.1105705E-02  0.6112920E-06  0.1406250E+01  0.5236250E-02  0.1370916E-04  0.1406250E+01  0.4975794E-02  0.1237926E-04
  0.1458333E+01  0.5898701E+00  0.1739734E+00  0.1458333E+01  0.2116689E-01  0.2240185E-03  0.1458333E+01  0.7033394E-02  0.2473432E-04  0.1458333E+01  0.8322553E-01  0.3463244E-02  0.1458333E+01  0.1161178E-02  0.6741671E-06  0.1458333E+01  0.6994392E-02  0.2446076E-04  0.1458333E+01  0.5041878E-02  0.1271027E-04
  0.1510417E+01  0.1199838E+01  0.7198050E+00  0.1510417E+01  0.1600002E-01  0.1280004E-03  0.1510417E+01  0.5481040E-01  0.1502090E-02  0.1510417E+01  0.1063312E+00  0.5653161E-02  0.1510417E+01  0.3285393E-02  0.5396905E-05  0.1510417E+01  0.7064939E-02  0.2495668E-04  0.1510417E+01  0.8090202E-02  0.3272568E-04
  0.1562500E+01  0.1489466E+01  0.1109254E+01  0.1562500E+01  0.5699457E-02  0.1624191E-04  0.1562500E+01  0.3394945E-01  0.5762824E-03  0.1562500E+01  0.8501797E-01  0.3614028E-02  0.1562500E+01  0.1265171E-02  0.8003294E-06  0.1562500E+01  0.1028011E-01  0.5284030E-04  0.1562500E+01  0.2989456E-02  0.4468423E-05
  0.1614583E+01  0.1915120E+01  0.1833842E+01  0.1614583E+01  0.5337818E-01  0.1424615E-02  0.1614583E+01  0.4209986E-01  0.8861992E-03  0.1614583E+01  0.3073325E+00  0.4722663E-01  0.1614583E+01  0.1851034E-02  0.1713163E-05  0.1614583E+01  0.1930183E-01  0.1862803E-03  0.1614583E+01  0.3167234E-02  0.5015686E-05
  0.1666667E+01  0.5799839E+01  0.1681907E+02  0.1666667E+01  0.1037161E+00  0.5378511E-02  0.1666667E+01  0.7587783E-02  0.2878722E-04  0.1666667E+01  0.5917662E+00  0.1750937E+00  0.1666667E+01  0.1504886E-02  0.1132341E-05  0.1666667E+01  0.4575969E-01  0.1046974E-02  0.1666667E+01  0.1510570E-02  0.1140910E-05
  0.1718750E+01  0.6372343E+01  0.2030338E+02  0.1718750E+01  0.1036839E+00  0.5375171E-02  0.1718750E+01  0.2279976E-01  0.2599144E-03  0.1718750E+01  0.5889227E+00  0.1734150E+00  0.1718750E+01  0.3925264E-02  0.7703849E-05  0.1718750E+01  0.5342079E-01  0.1426890E-02  0.1718750E+01  0.1408411E-02  0.9918103E-06
  0.1770833E+01  0.2146732E+01  0.2304230E+01  0.1770833E+01  0.3246662E-01  0.5270407E-03  0.1770833E+01  0.2566944E-01  0.3294602E-03  0.1770833E+01  0.1791529E+00  0.1604788E-01  0.1770833E+01  0.1184672E-02  0.7017238E-06  0.1770833E+01  0.2025655E-01  0.2051640E-03  0.1770833E+01  0.2819678E-02  0.3975293E-05
  0.1822917E+01  0.1312537E+01  0.8613763E+00  0.1822917E+01  0.1927593E-01  0.1857807E-03  0.1822917E+01  0.1969807E-01  0.1940069E-03  0.1822917E+01  0.9635077E-01  0.4641735E-02  0.1822917E+01  0.1725488E-02  0.1488655E-05  0.1822917E+01  0.1017238E-01  0.5173867E-04  0.1822917E+01  0.2038954E-02  0.2078666E-05
  0.1875000E+01  0.9465386E+00  0.4479676E+00  0.1875000E+01  0.1511443E-01  0.1142230E-03  0.1875000E+01  0.1146352E-01  0.6570618E-04  0.1875000E+01  0.7338393E-01  0.2692601E-02  0.1875000E+01  0.9884918E-03  0.4885580E-06  0.1875000E+01  0.6689972E-02  0.2237786E-04  0.1875000E+01  0.1004091E-02  0.5040993E-06
  0.1927083E+01  0.6955664E+00  0.2419063E+00  0.1927083E+01  0.9177892E-02  0.4211685E-04  0.1927083E+01  0.6752749E-02  0.2279981E-04  0.1927083E+01  0.5353015E-01  0.1432738E-02  0.1927083E+01  0.1519887E-02  0.1155028E-05  0.1927083E+01  0.4210519E-02  0.8864235E-05  0.1927083E+01  0.8940660E-03  0.3996770E-06
  0.1979167E+01  0.5466843E+00  0.1494318E+00  0.1979167E+01  0.1056074E-01  0.5576457E-04  0.1979167E+01  0.1974860E-01  0.1950037E-03  0.1979167E+01  0.4974575E-01  0.1237320E-02  0.1979167E+01  0.1895550E-02  0.1796555E-05  0.1979167E+01  0.5893421E-02  0.1736620E-04  0.1979167E+01  0.1600068E-02  0.1280108E-05
  0.2031250E+01  0.4681246E+00  0.1095703E+00  0.2031250E+01  0.8437252E-02  0.3559361E-04  0.2031250E+01  0.1542213E-01  0.1189210E-03  0.2031250E+01  0.3758361E-01  0.7062639E-03  0.2031250E+01  0.1403983E-02  0.9855837E-06  0.2031250E+01  0.2894522E-02  0.4189128E-05  0.2031250E+01  0.9148684E-03  0.4184921E-06
  0.2083333E+01  0.4543853E+00  0.1032330E+00  0.2083333E+01  0.1379145E-01  0.9510202E-04  0.2083333E+01  0.2222650E-01  0.2470087E-03  0.2083333E+01  0.2851196E-01  0.4064659E-03  0.2083333E+01  0.1208792E-02  0.7305887E-06  0.2083333E+01  0.3608170E-02  0.6509447E-05  0.2083333E+01  0.1716975E-02  0.1474001E-05
  0.2135417E+01  0.3699394E+00  0.6842758E-01  0.2135417E+01  0.1166104E-01  0.6798988E-04  0.2135417E+01  0.1722957E-01  0.1484291E-03  0.2135417E+01  0.3462140E-01  0.5993205E-03  0.2135417E+01  0.1258924E-02  0.7924445E-06  0.2135417E+01  0.2347570E-02  0.2755543E-05  0.2135417E+01  0.1061773E-02  0.5636809E-06
  0.2187500E+01  0.3475329E+00  0.6038954E-01  0.2187500E+01  0.7129290E-02  0.2541339E-04  0.2187500E+01  0.4097648E-01  0.8395357E-03  0.2187500E+01  0.3223530E-01  0.5195574E-03  0.2187500E+01  0.3893663E-02  0.7580307E-05  0.2187500E+01  0.1365177E-02  0.9318538E-06  0.2187500E+01  0.6140648E-03  0.1885378E-06
  0.2239583E+01  0.3267721E+00  0.5339001E-01  0.2239583E+01  0.6530753E-02  0.2132537E-04  0.2239583E+01  0.2307794E-01  0.2662956E-03  0.2239583E+01  0.1701647E-01  0.1447801E-03  0.2239583E+01  0.2085009E-02  0.2173631E-05  0.2239583E+01  0.1413796E-02  0.9994101E-06  0.2239583E+01  0.9815320E-03  0.4817026E-06
  0.2291667E+01  0.2714021E+00  0.3682954E-01  0.2291667E+01  0.1008215E-01  0.5082488E-04  0.2291667E+01  0.2298371E-01  0.2641256E-03  0.2291667E+01  0.3682809E-01  0.6781539E-03  0.2291667E+01  0.3427980E-02  0.5875523E-05  0.2291667E+01  0.3162179E-02  0.4999689E-05  0.2291667E+01  0.5018310E-03  0.1259172E-06
  0.2343750E+01  0.2857885E+00  0.4083754E-01  0.2343750E+01  0.1091003E-01  0.5951440E-04  0.2343750E+01  0.2045373E-01  0.2091776E-03  0.2343750E+01  0.2025324E-01  0.2050969E-03  0.2343750E+01  0.1018464E-02  0.5186347E-06  0.2343750E+01  0.2843510E-02  0.4042774E-05  0.2343750E+01  0.9833708E-03  0.4835091E-06
  0.2395833E+01  0.2667182E+00  0.3556931E-01  0.2395833E+01  0.2711854E-02  0.3677076E-05  0.2395833E+01  0.1070668E-01  0.5731652E-04  0.2395833E+01  0.1729748E-01  0.1496014E-03  0.2395833E+01  0.1306984E-02  0.8541032E-06  0.2395833E+01  0.1947565E-02  0.1896504E-05  0.2395833E+01  0.8519721E-03  0.3629282E-06
  0.2447917E+01  0.2452698E+00  0.3007865E-01  0.2447917E+01  0.4740004E-02  0.1123382E-04  0.2447917E+01  0.1937280E-01  0.1876528E-03  0.2447917E+01  0.9921989E-02  0.4922293E-04  0.2447917E+01  0.3066756E-02  0.4702496E-05  0.2447917E+01  0.2726525E-02  0.3716970E-05  0.2447917E+01  0.1263370E-02  0.7980518E-06
  0.2500000E+01  0.2110682E+00  0.2227490E-01  0.2500000E+01  0.4641987E-02  0.1077402E-04  0.2500000E+01  0.2871005E-01  0.4121336E-03  0.2500000E+01  0.1366821E-01  0.9341003E-04  0.2500000E+01  0.2494587E-02  0.3111482E-05  0.2500000E+01  0.1819939E-02  0.1656089E-05  0.2500000E+01  0.2243806E-02  0.2517334E-05
  0.2552083E+01  0.1858690E+00  0.1727364E-01  0.2552083E+01  0.3522179E-02  0.6202873E-05  0.2552083E+01  0.1399832E-01  0.9797650E-04  0.2552083E+01  0.3102179E-02  0.4811757E-05  0.2552083E+01  0.1624602E-02  0.1319666E-05  0.2552083E+01  0.2202820E-02  0.2426208E-05  0.2552083E+01  0.1348279E-02  0.9089280E-06
  0.2604167E+01  0.2047005E+00  0.2095115E-01  0.2604167E+01  0.6428446E-02  0.2066246E-04  0.2604167E+01  0.2004775E-01  0.2009561E-03  0.2604167E+01  0.7956908E-02  0.3165619E-04  0.2604167E+01  0.1538434E-02  0.1183389E-05  0.2604167E+01  0.2087830E-02  0.2179516E-05  0.2604167E+01  0.8446274E-03  0.3566977E-06
  0.2656250E+01  0.1733633E+00  0.1502741E-01  0.2656250E+01  0.2089352E-02  0.2182695E-05  0.2656250E+01  0.1410135E-01  0.9942405E-04  0.2656250E+01  0.1120152E-01  0.6273702E-04  0.2656250E+01  0.2246471E-02  0.2523317E-05  0.2656250E+01  0.1997615E-02  0.1995232E-05  0.2656250E+01  0.3839222E-03  0.7369815E-07
  0.2708333E+01  0.1890045E+00  0.1786134E-01  0.2708333E+01  0.6864404E-02  0.2356002E-04  0.2708333E+01  0.1807583E-01  0.1633678E-03  0.2708333E+01  0.7129340E-02  0.2541375E-04  0.2708333E+01  0.1603826E-02  0.1286128E-05  0.2708333E+01  0.1893667E-02  0.1792988E-05  0.2708333E+01  0.1089041E-02  0.5930053E-06
  0.2760417E+01  0.1630400E+00  0.1329102E-01  0.2760417E+01  0.5015518E-02  0.1257771E-04  0.2760417E+01  0.1896245E-01  0.1797873E-03  0.2760417E+01  0.8565970E-02  0.3668792E-04  0.2760417E+01  0.2351332E-02  0.2764382E-05  0.2760417E+01  0.1527509E-02  0.1166642E-05  0.2760417E+01  0.1528856E-02  0.1168700E-05
  0.2812500E+01  0.1529304E+00  0.1169385E-01  0.2812500E+01  0.5277146E-02  0.1392413E-04  0.2812500E+01  0.1675198E-01  0.1403144E-03  0.2812500E+01  0.1090325E-02  0.5944038E-06  0.2812500E+01  0.2047304E-02  0.2095726E-05  0.2812500E+01  0.1866070E-02  0.1741108E-05  0.2812500E+01  0.4212188E-03  0.8871263E-07
  0.2864583E+01  0.1646058E+00  0.1354753E-01  0.2864583E+01  0.3531544E-02  0.6235901E-05  0.2864583E+01  0.1724696E-01  0.1487288E-03  0.2864583E+01  0.4212812E-02  0.8873890E-05  0.2864583E+01  0.2084700E-02  0.2172987E-05  0.2864583E+01  0.1848424E-02  0.1708336E-05  0.2864583E+01  0.1844320E-02  0.1700759E-05
  0.2916667E+01  0.1494873E+00  0.1117323E-01  0.2916667E+01  0.2488363E-02  0.3095975E-05  0.2916667E+01  0.1934208E-01  0.1870579E-03  0.2916667E+01  0.1402652E-01  0.9837162E-04  0.2916667E+01  0.1640635E-02  0.1345841E-05  0.2916667E+01  0.1758702E-02  0.1546516E-05  0.2916667E+01  0.1079599E-02  0.5827666E-06
  0.2968750E+01  0.1345479E+00  0.9051566E-02  0.2968750E+01  0.5910632E-02  0.1746779E-04  0.2968750E+01  0.1322668E-01  0.8747253E-04  0.2968750E+01  0.1601556E-01  0.1282490E-03  0.2968750E+01  0.8511096E-03  0.3621938E-06  0.2968750E+01  0.2794492E-02  0.3904593E-05  0.2968750E+01  0.1056758E-02  0.5583688E-06
  0.3020833E+01  0.1225653E+00  0.7511128E-02  0.3020833E+01  0.4014396E-02  0.8057689E-05  0.3020833E+01  0.8695441E-02  0.3780535E-04  0.3020833E+01  0.1572346E-01  0.1236136E-03  0.3020833E+01  0.5283882E-03  0.1395970E-06  0.3020833E+01  0.4505284E-03  0.1014879E-06  0.3020833E+01  0.1129254E-02  0.6376071E-06
  0.3072917E+01  0.1344021E+00  0.9031966E-02  0.3072917E+01  0.6056871E-02  0.1834284E-04  0.3072917E+01  0.1519610E-01  0.1154608E-03  0.3072917E+01  0.1048293E-01  0.5494594E-04  0.3072917E+01  0.2485805E-02  0.3089614E-05  0.3072917E+01  0.1895163E-02  0.1795821E-05  0.3072917E+01  0.6690403E-03  0.2238074E-06
  0.3125000E+01  0.1463448E+00  0.1070840E-01  0.3125000E+01  0.4873020E-02  0.1187316E-04  0.3125000E+01  0.1656236E-01  0.1371559E-03  0.3125000E+01  0.6144698E-02  0.1887865E-04  0.3125000E+01  0.1714380E-02  0.1469549E-05  0.3125000E+01  0.1068625E-02  0.5709795E-06  0.3125000E+01  0.6357706E-03  0.2021021E-06
  0.3177083E+01  0.1162886E+00  0.6761524E-02  0.3177083E+01  0.3975060E-02  0.7900552E-05  0.3177083E+01  0.4572346E-02  0.1045317E-04  0.3177083E+01  0.3667363E-02  0.6724776E-05  0.3177083E+01  0.1971857E-02  0.1944109E-05  0.3177083E+01  0.1068096E-02  0.5704148E-06  0.3177083E+01  0.1362450E-02  0.9281355E-06
  0.3229167E+01  0.1201805E+00  0.7221677E-02  0.3229167E+01  0.3160699E-02  0.4995008E-05  0.3229167E+01  0.1719772E-01  0.1478807E-03  0.3229167E+01  0.1847420E-01  0.1706481E-03  0.3229167E+01  0.1029639E-02  0.5300786E-06  0.3229167E+01  0.8396478E-03  0.3525042E-06  0.3229167E+01  0.3908453E-03  0.7638003E-07
  0.3281250E+01  0.1155932E+00  0.6680892E-02  0.3281250E+01  0.4101313E-02  0.8410385E-05  0.3281250E+01  0.8517832E-02  0.3627673E-04  0.3281250E+01  0.1373385E-01  0.9430927E-04  0.3281250E+01  0.9547158E-03  0.4557411E-06  0.3281250E+01  0.1484165E-02  0.1101373E-05  0.3281250E+01  0.8291764E-03  0.3437668E-06
  0.3333333E+01  0.1401350E+00  0.9818914E-02  0.3333333E+01  0.8791332E-02  0.3864376E-04  0.3333333E+01  0.1798622E-01  0.1617521E-03  0.3333333E+01  0.8071426E-02  0.3257396E-04  0.3333333E+01  0.6229026E-03  0.1940038E-06  0.3333333E+01  0.1767355E-02  0.1561771E-05  0.3333333E+01  0.3424942E-03  0.5865114E-07
  0.3385417E+01  0.3209220E+00  0.5149547E-01  0.3385417E+01  0.7069087E-02  0.2498599E-04  0.3385417E+01  0.2191902E-01  0.2402217E-03  0.3385417E+01  0.6743970E-02  0.2274057E-04  0.3385417E+01  0.1073622E-02  0.5763327E-06  0.3385417E+01  0.1987111E-02  0.1974305E-05  0.3385417E+01  0.6976851E-03  0.2433822E-06
  0.3437500E+01  0.9069260E-01  0.4112574E-02  0.3437500E+01  0.4502931E-02  0.1013819E-04  0.3437500E+01  0.2708537E-02  0.3668085E-05  0.3437500E+01  0.1589188E-01  0.1262759E-03  0.3437500E+01  0.5077435E-03  0.1289017E-06  0.3437500E+01  0.5526077E-03  0.1526876E-06  0.3437500E+01  0.4990142E-03  0.1245076E-06
  0.3489583E+01  0.1033427E+00  0.5339861E-02  0.3489583E+01  0.7282019E-02  0.2651390E-04  0.3489583E+01  0.1564838E-01  0.1224360E-03  0.3489583E+01  0.6101682E-02  0.1861526E-04  0.3489583E+01  0.5266725E-03  0.1386919E-06  0.3489583E+01  0.1050043E-02  0.5512949E-06  0.3489583E+01  0.8191683E-03  0.3355184E-06
  0.3541667E+01  0.8748187E-01  0.3826539E-02  0.3541667E+01  0.2910732E-02  0.4236180E-05  0.3541667E+01  0.8535885E-02  0.3643067E-04  0.3541667E+01  0.1525282E-01  0.1163243E-03  0.3541667E+01  0.1855233E-02  0.1720945E-05  0.3541667E+01  0.1863589E-02  0.1736482E-05  0.3541667E+01  0.1011628E-03  0.5116960E-08
  0.3593750E+01  0.1077922E+00  0.5809574E-02  0.3593750E+01  0.7394800E-02  0.2734153E-04  0.3593750E+01  0.1287531E-01  0.8288677E-04  0.3593750E+01  0.7358724E-02  0.2707541E-04  0.3593750E+01  0.3357460E-03  0.5636269E-07  0.3593750E+01  0.1126475E-02  0.6344724E-06  0.3593750E+01  0.1291151E-02  0.8335354E-06
  0.3645833E+01  0.9168156E-01  0.4202755E-02  0.3645833E+01  0.5325661E-02  0.1418133E-04  0.3645833E+01  0.9998691E-02  0.4998691E-04  0.3645833E+01  0.9601390E-02  0.4609335E-04  0.3645833E+01  0.1094550E-02  0.5990199E-06  0.3645833E+01  0.6113420E-03  0.1868695E-06  0.3645833E+01  0.2990997E-03  0.4473032E-07
  0.3697917E+01  0.9845551E-01  0.4846744E-02  0.3697917E+01  0.1955375E-02  0.1911745E-05  0.3697917E+01  0.5717676E-02  0.1634591E-04  0.3697917E+01  0.6688947E-02  0.2237101E-04  0.3697917E+01  0.9942916E-03  0.4943079E-06  0.3697917E+01  0.7048485E-03  0.2484057E-06  0.3697917E+01  0.3964051E-03  0.7856850E-07
  0.3750000E+01  0.8744454E-01  0.3823274E-02  0.3750000E+01  0.2278093E-02  0.2594854E-05  0.3750000E+01  0.1033354E-01  0.5339107E-04  0.3750000E+01  0.1000970E-02  0.5009703E-06  0.3750000E+01  0.1327551E-02  0.8811951E-06  0.3750000E+01  0.6389287E-03  0.2041150E-06  0.3750000E+01  0.4983341E-03  0.1241684E-06
  0.3802083E+01  0.9286489E-01  0.4311944E-02  0.3802083E+01  0.2391233E-02  0.2858998E-05  0.3802083E+01  0.4142244E-02  0.8579093E-05  0.3802083E+01  0.9930420E-02  0.4930662E-04  0.3802083E+01  0.1057962E-02  0.5596420E-06  0.3802083E+01  0.6251611E-03  0.1954132E-06  0.3802083E+01  0.4870810E-03  0.1186239E-06
  0.3854167E+01  0.1026625E+00  0.5269789E-02  0.3854167E+01  0.3984048E-02  0.7936321E-05  0.3854167E+01  0.1530640E-01  0.1171430E-03  0.3854167E+01  0.7009961E-02  0.2456978E-04  0.3854167E+01  0.1577861E-02  0.1244823E-05  0.3854167E+01  0.1227301E-02  0.7531337E-06  0.3854167E+01  0.1232318E-02  0.7593040E-06
  0.3906250E+01  0.8119051E-01  0.3295950E-02  0.3906250E+01  0.8775721E-03  0.3850664E-06  0.3906250E+01  0.1295385E-01  0.8390112E-04  0.3906250E+01  0.9355342E-02  0.4376121E-04  0.3906250E+01  0.1965047E-02  0.1930704E-05  0.3906250E+01  0.1292075E-02  0.8347292E-06  0.3906250E+01  0.1143279E-02  0.6535436E-06
  0.3958333E+01  0.7031395E-01  0.2472026E-02  0.3958333E+01  0.6455097E-02  0.2083414E-04  0.3958333E+01  0.2438716E-01  0.2973669E-03  0.3958333E+01  0.7749940E-02  0.3003078E-04  0.3958333E+01  0.1711722E-02  0.1464996E-05  0.3958333E+01  0.3940083E-03  0.7762126E-07  0.3958333E+01  0.1198319E-02  0.7179846E-06
  0.4010417E+01  0.1166720E+00  0.6806180E-02  0.4010417E+01  0.5004203E-02  0.1252102E-04  0.4010417E+01  0.9541972E-02  0.4552461E-04  0.4010417E+01  0.1232461E-01  0.7594806E-04  0.4010417E+01  0.1049652E-02  0.5508847E-06  0.4010417E+01  0.1467166E-02  0.1076288E-05  0.4010417E+01  0.1129877E-02  0.6383111E-06
  0.4062500E+01  0.6317588E-01  0.1995596E-02  0.4062500E+01  0.5060116E-02  0.1280239E-04  0.4062500E+01  0.1912983E-02  0.1829752E-05  0.4062500E+01  0.5538146E-02  0.1533553E-04  0.4062500E+01  0.6268091E-03  0.1964448E-06  0.4062500E+01  0.1199881E-02  0.7198567E-06  0.4062500E+01  0.1766145E-03  0.1559634E-07
  0.4114583E+01  0.4791499E-01  0.1147923E-02  0.4114583E+01  0.1516302E-01  0.1149586E-03  0.4114583E+01  0.2242587E-01  0.2514598E-03  0.4114583E+01  0.1694233E-01  0.1435213E-03  0.4114583E+01  0.1160114E-02  0.6729320E-06  0.4114583E+01  0.1591047E-02  0.1265715E-05  0.4114583E+01  0.1435085E-02  0.1029735E-05
  0.4166667E+01  0.8371323E-01  0.3503952E-02  0.4166667E+01  0.3039046E-02  0.4617900E-05  0.4166667E+01  0.3499500E-02  0.6123251E-05  0.4166667E+01  0.5229706E-02  0.1367491E-04  0.4166667E+01  0.4032867E-03  0.8132009E-07  0.4166667E+01  0.6056060E-03  0.1833793E-06  0.4166667E+01  0.6053192E-03  0.1832056E-06
  0.4218750E+01  0.7117949E-01  0.2533260E-02  0.4218750E+01  0.5396714E-02  0.1456226E-04  0.4218750E+01  0.1884839E-01  0.1776308E-03  0.4218750E+01  0.1357247E-01  0.9210603E-04  0.4218750E+01  0.1022147E-02  0.5223928E-06  0.4218750E+01  0.6147655E-03  0.1889683E-06  0.4218750E+01  0.1324808E-02  0.8775575E-06
  0.4270833E+01  0.5895799E-01  0.1738022E-02  0.4270833E+01  0.7001613E-02  0.2451130E-04  0.4270833E+01  0.1134234E-01  0.6432433E-04  0.4270833E+01  0.3598116E-02  0.6473219E-05  0.4270833E+01  0.6764695E-03  0.2288055E-06  0.4270833E+01  0.1400918E-02  0.9812862E-06  0.4270833E+01  0.1287829E-02  0.8292519E-06
  0.4322917E+01  0.8210318E-01  0.3370466E-02  0.4322917E+01  0.3912813E-02  0.7655050E-05  0.4322917E+01  0.1341848E-01  0.9002786E-04  0.4322917E+01  0.3830062E-02  0.7334687E-05  0.4322917E+01  0.2840880E-02  0.4035299E-05  0.4322917E+01  0.6339334E-03  0.2009358E-06  0.4322917E+01  0.7975307E-03  0.3180276E-06
  0.4375000E+01  0.1064837E+00  0.5669390E-02  0.4375000E+01  0.2292077E-02  0.2626809E-05  0.4375000E+01  0.1047158E-01  0.5482696E-04  0.4375000E+01  0.9761799E-02  0.4764636E-04  0.4375000E+01  0.1132602E-02  0.6413939E-06  0.4375000E+01  0.1948194E-03  0.1897731E-07  0.4375000E+01  0.9164673E-03  0.4199561E-06
  0.4427083E+01  0.5155621E-01  0.1329022E-02  0.4427083E+01  0.4799005E-02  0.1151522E-04  0.4427083E+01  0.2254540E-01  0.2541475E-03  0.4427083E+01  0.5083244E-02  0.1291969E-04  0.4427083E+01  0.1486196E-02  0.1104389E-05  0.4427083E+01  0.8087150E-03  0.3270100E-06  0.4427083E+01  0.1347676E-02  0.9081148E-06
  0.4479167E+01  0.8232887E-01  0.3389022E-02  0.4479167E+01  0.3598224E-02  0.6473610E-05  0.4479167E+01  0.1256514E-01  0.7894143E-04  0.4479167E+01  0.1172958E-01  0.6879157E-04  0.4479167E+01  0.1340184E-02  0.8980459E-06  0.4479167E+01  0.8457139E-03  0.3576160E-06  0.4479167E+01  0.6074129E-03  0.1844752E-06
  0.4531250E+01  0.7174426E-01  0.2573619E-02  0.4531250E+01  0.5609521E-02  0.1573337E-04  0.4531250E+01  0.1416364E-01  0.1003043E-03  0.4531250E+01  0.7235606E-02  0.2617699E-04  0.4531250E+01  0.1148125E-03  0.6590950E-08  0.4531250E+01  0.5375459E-03  0.1444778E-06  0.4531250E+01  0.6225044E-03  0.1937559E-06
  0.4583333E+01  0.4271858E-01  0.9124386E-03  0.4583333E+01  0.1946812E-02  0.1895038E-05  0.4583333E+01  0.7088322E-02  0.2512216E-04  0.4583333E+01  0.8923107E-02  0.3981092E-04  0.4583333E+01  0.8816165E-03  0.3886238E-06  0.4583333E+01  0.4735473E-03  0.1121235E-06  0.4583333E+01  0.5669961E-03  0.1607423E-06
  0.4635417E+01  0.7813642E-01  0.3052650E-02  0.4635417E+01  0.1887551E-02  0.1781425E-05  0.4635417E+01  0.8128301E-02  0.3303464E-04  0.4635417E+01  0.7784483E-02  0.3029909E-04  0.4635417E+01  0.6961125E-03  0.2422863E-06  0.4635417E+01  0.4742061E-03  0.1124357E-06  0.4635417E+01  0.5565913E-03  0.1548970E-06
  0.4687500E+01  0.8323825E-01  0.3464303E-02  0.4687500E+01  0.2662656E-02  0.3544870E-05  0.4687500E+01  0.1058332E-01  0.5600332E-04  0.4687500E+01  0.6132694E-02  0.1880497E-04  0.4687500E+01  0.2375144E-02  0.2820654E-05  0.4687500E+01  0.1123553E-02  0.6311859E-06  0.4687500E+01  0.7477931E-03  0.2795972E-06
  0.4739583E+01  0.6830131E-01  0.2332534E-02  0.4739583E+01  0.1243624E-02  0.7733008E-06  0.4739583E+01  0.4600941E-02  0.1058433E-04  0.4739583E+01  0.2979623E-02  0.4439077E-05  0.4739583E+01  0.6475780E-03  0.2096787E-06  0.4739583E+01  0.4746697E-03  0.1126557E-06  0.4739583E+01  0.5580693E-03  0.1557206E-06
  0.4791667E+01  0.6702074E-01  0.2245889E-02  0.4791667E+01  0.3390854E-02  0.5748947E-05  0.4791667E+01  0.1208308E-01  0.7300045E-04  0.4791667E+01  0.1116028E-01  0.6227593E-04  0.4791667E+01  0.3103771E-02  0.4816698E-05  0.4791667E+01  0.5448274E-03  0.1484185E-06  0.4791667E+01  0.5539074E-03  0.1534067E-06