TITLE = "PITCH AND HEAVE TIME HISTORY DATA FOR MODEL 5512 WO BILGE KEELS"
VARIABLES = t, wave, x, y, z, roll, pitch, yaw, visibility, Uc
ZONE T="saak2_01, Fr=0.000,  Ak=0.050", i= 1600, j=  1, k=  1, F=POINT
  0.0000000E+00 -0.2615534E+01 -0.2615534E+01  0.1701729E+00 -0.3206903E+01 -0.3206903E+01 -0.4224660E-01 -0.4224660E-01  0.2531666E-02  0.0000000E+00
  0.1875000E-01 -0.3051592E+01 -0.2833563E+01  0.1566999E+00 -0.3145393E+01 -0.3176148E+01 -0.3648273E-01 -0.3936466E-01  0.3134444E-02  0.0000000E+00
  0.3750000E-01 -0.3999291E+01 -0.3222139E+01  0.1320880E+00 -0.3003461E+01 -0.3118586E+01 -0.2323700E-01 -0.3398878E-01  0.2893333E-02  0.0000000E+00
  0.5625000E-01 -0.5209151E+01 -0.3718892E+01  0.1050265E+00 -0.2807471E+01 -0.3040807E+01 -0.4219320E-02 -0.2654641E-01  0.1928889E-02  0.0000000E+00
  0.7500000E-01 -0.6460648E+01 -0.4267243E+01  0.7683580E-01 -0.2576448E+01 -0.2947935E+01  0.1775247E-01 -0.1768664E-01  0.9644444E-03  0.0000000E+00
  0.9375000E-01 -0.7641098E+01 -0.4829552E+01  0.3584198E-01 -0.2320559E+01 -0.2843373E+01  0.4132198E-01 -0.7851866E-02  0.3375555E-02  0.0000000E+00
  0.1125000E+00 -0.8712608E+01 -0.5384274E+01 -0.2353087E-01 -0.2038441E+01 -0.2728382E+01  0.6540358E-01  0.2613198E-02  0.8197777E-02  0.0000000E+00
  0.1312500E+00 -0.9667686E+01 -0.5919701E+01 -0.9706296E-01 -0.1739435E+01 -0.2604764E+01  0.9029852E-01  0.1357386E-01  0.1205555E-01  0.0000000E+00
  0.1500000E+00 -0.1050121E+02 -0.6428757E+01 -0.1684852E+00 -0.1427164E+01 -0.2473920E+01  0.1148918E+00  0.2483142E-01  0.1205555E-01  0.0000000E+00
  0.1687500E+00 -0.1120607E+02 -0.6906489E+01 -0.2230333E+00 -0.1103747E+01 -0.2336902E+01  0.1382801E+00  0.3617629E-01  0.8197777E-02  0.0000000E+00
  0.1875000E+00 -0.1177558E+02 -0.7349133E+01 -0.2552864E+00 -0.7592396E+00 -0.2193478E+01  0.1590169E+00  0.4734362E-01  0.5786666E-02  0.0000000E+00
  0.2062500E+00 -0.1220025E+02 -0.7753394E+01 -0.2676531E+00 -0.4047901E+00 -0.2044421E+01  0.1771022E+00  0.5815683E-01  0.5786666E-02  0.0000000E+00
  0.2250000E+00 -0.1246864E+02 -0.8116105E+01 -0.2679654E+00 -0.4973581E-01 -0.1890984E+01  0.1920232E+00  0.6845425E-01  0.9644443E-02  0.0000000E+00
  0.2437500E+00 -0.1256968E+02 -0.8434217E+01 -0.2592296E+00  0.2932667E+00 -0.1734966E+01  0.2037796E+00  0.7812035E-01  0.1253778E-01  0.0000000E+00
  0.2625000E+00 -0.1249390E+02 -0.8704863E+01 -0.2465679E+00  0.6350679E+00 -0.1576964E+01  0.2119493E+00  0.8704228E-01  0.1494889E-01  0.0000000E+00
  0.2812500E+00 -0.1223854E+02 -0.8925717E+01 -0.2332975E+00  0.9705420E+00 -0.1417745E+01  0.2170445E+00  0.9516741E-01  0.1591333E-01  0.0000000E+00
  0.3000000E+00 -0.1180361E+02 -0.9095006E+01 -0.2260568E+00  0.1294264E+01 -0.1258215E+01  0.2193664E+00  0.1024732E+00  0.1784222E-01  0.0000000E+00
  0.3187500E+00 -0.1119780E+02 -0.9211827E+01 -0.2218346E+00  0.1585435E+01 -0.1100234E+01  0.2195178E+00  0.1089757E+00  0.1928889E-01  0.0000000E+00
  0.3375000E+00 -0.1043530E+02 -0.9276221E+01 -0.2133975E+00  0.1839226E+01 -0.9455258E+00  0.2176791E+00  0.1146970E+00  0.1928889E-01  0.0000000E+00
  0.3562500E+00 -0.9537429E+01 -0.9289282E+01 -0.1901938E+00  0.2048401E+01 -0.7958295E+00  0.2138807E+00  0.1196561E+00  0.1687778E-01  0.0000000E+00
  0.3750000E+00 -0.8523515E+01 -0.9252816E+01 -0.1525234E+00  0.2221706E+01 -0.6521373E+00  0.2073999E+00  0.1238344E+00  0.1302000E-01  0.0000000E+00
  0.3937500E+00 -0.7408569E+01 -0.9168987E+01 -0.1070160E+00  0.2369095E+01 -0.5148086E+00  0.1968505E+00  0.1271533E+00  0.8679999E-02  0.0000000E+00
  0.4125000E+00 -0.6202858E+01 -0.9040025E+01 -0.6030000E-01  0.2505038E+01 -0.3835109E+00  0.1810873E+00  0.1294983E+00  0.4822222E-02  0.0000000E+00
  0.4312500E+00 -0.4916648E+01 -0.8868217E+01 -0.1448271E-01  0.2625310E+01 -0.2581433E+00  0.1601999E+00  0.1307775E+00  0.9644443E-03  0.0000000E+00
  0.4500000E+00 -0.3562168E+01 -0.8655975E+01  0.3164198E-01  0.2714228E+01 -0.1392485E+00  0.1362980E+00  0.1309983E+00 -0.3857777E-02  0.0000000E+00
  0.4687500E+00 -0.2152435E+01 -0.8405839E+01  0.6993333E-01  0.2755515E+01 -0.2791142E-01  0.1113409E+00  0.1302423E+00 -0.1109111E-01  0.0000000E+00
  0.4875000E+00 -0.7008702E+00 -0.8120470E+01  0.9315309E-01  0.2746460E+01  0.7484309E-01  0.8632370E-01  0.1286157E+00 -0.1880667E-01  0.0000000E+00
  0.5062500E+00  0.7763481E+00 -0.7802726E+01  0.9466790E-01  0.2693101E+01  0.1683523E+00  0.6040234E-01  0.1261795E+00 -0.2314666E-01  0.0000000E+00
  0.5250000E+00  0.2256327E+01 -0.7455862E+01  0.8593087E-01  0.2591223E+01  0.2518996E+00  0.3372753E-01  0.1229915E+00 -0.2121777E-01  0.0000000E+00
  0.5437500E+00  0.3710659E+01 -0.7083644E+01  0.7809630E-01  0.2432991E+01  0.3246026E+00  0.6871480E-02  0.1191208E+00 -0.1494889E-01  0.0000000E+00
  0.5625000E+00  0.5110139E+01 -0.6690297E+01  0.8291975E-01  0.2211769E+01  0.3854790E+00 -0.1865852E-01  0.1146763E+00 -0.9644443E-02  0.0000000E+00
  0.5812500E+00  0.6431878E+01 -0.6280229E+01  0.9196296E-01  0.1949551E+01  0.4343562E+00 -0.4262148E-01  0.1097608E+00 -0.9162221E-02  0.0000000E+00
  0.6000000E+00  0.7657320E+01 -0.5857879E+01  0.9557901E-01  0.1668936E+01  0.4717677E+00 -0.6546914E-01  0.1044508E+00 -0.1302000E-01  0.0000000E+00
  0.6187500E+00  0.8770672E+01 -0.5427627E+01  0.8080617E-01  0.1392227E+01  0.4988401E+00 -0.8900988E-01  0.9876076E-01 -0.1687778E-01  0.0000000E+00
  0.6375000E+00  0.9753779E+01 -0.4993873E+01  0.5156050E-01  0.1112800E+01  0.5163818E+00 -0.1147203E+00  0.9266130E-01 -0.1687778E-01  0.0000000E+00
  0.6562500E+00  0.1059165E+02 -0.4560942E+01  0.1538025E-01  0.8252370E+00  0.5249611E+00 -0.1419372E+00  0.8614467E-01 -0.1253778E-01  0.0000000E+00
  0.6750000E+00  0.1127204E+02 -0.4133023E+01 -0.1446913E-01  0.5090506E+00  0.5245311E+00 -0.1673451E+00  0.7929360E-01 -0.7233333E-02  0.0000000E+00
  0.6937500E+00  0.1178628E+02 -0.3714094E+01 -0.3135309E-01  0.1548975E+00  0.5148039E+00 -0.1874779E+00  0.7227330E-01 -0.4340000E-02  0.0000000E+00
  0.7125000E+00  0.1212292E+02 -0.3308016E+01 -0.3225802E-01 -0.2429556E+00  0.4953741E+00 -0.2018840E+00  0.6524362E-01 -0.5304444E-02  0.0000000E+00
  0.7312500E+00  0.1226972E+02 -0.2918573E+01 -0.1808889E-01 -0.6558815E+00  0.4665927E+00 -0.2129748E+00  0.5828816E-01 -0.8197777E-02  0.0000000E+00
  0.7500000E+00  0.1221684E+02 -0.2549417E+01  0.6630865E-02 -0.1054947E+01  0.4294820E+00 -0.2228909E+00  0.5143014E-01 -0.1157333E-01  0.0000000E+00
  0.7687500E+00  0.1196307E+02 -0.2203881E+01  0.3828148E-01 -0.1419047E+01  0.3854694E+00 -0.2314811E+00  0.4469416E-01 -0.1398444E-01  0.0000000E+00
  0.7875000E+00  0.1151591E+02 -0.1884816E+01  0.6932469E-01 -0.1758126E+01  0.3356184E+00 -0.2368164E+00  0.3814740E-01 -0.1494889E-01  0.0000000E+00
  0.8062500E+00  0.1089194E+02 -0.1594435E+01  0.9644815E-01 -0.2076403E+01  0.2807997E+00 -0.2376004E+00  0.3188040E-01 -0.1157333E-01  0.0000000E+00
  0.8250000E+00  0.1011209E+02 -0.1334290E+01  0.1148333E+00 -0.2377500E+01  0.2217264E+00 -0.2340138E+00  0.2597165E-01 -0.3375555E-02  0.0000000E+00
  0.8437500E+00  0.9197263E+01 -0.1105344E+01  0.1265938E+00 -0.2653583E+01  0.1592197E+00 -0.2271416E+00  0.2046918E-01  0.7233332E-02  0.0000000E+00
  0.8625000E+00  0.8159699E+01 -0.9082150E+00  0.1341358E+00 -0.2905560E+01  0.9401159E-01 -0.2180084E+00  0.1539519E-01  0.1350222E-01  0.0000000E+00
  0.8812500E+00  0.7004128E+01 -0.7433746E+00  0.1422778E+00 -0.3123786E+01  0.2697413E-01 -0.2067951E+00  0.1076623E-01  0.1350222E-01  0.0000000E+00
  0.9000000E+00  0.5733308E+01 -0.6111974E+00  0.1522222E+00 -0.3299822E+01 -0.4091967E-01 -0.1936225E+00  0.6595030E-02  0.9162221E-02  0.0000000E+00
  0.9187500E+00  0.4359083E+01 -0.5117918E+00  0.1648766E+00 -0.3424619E+01 -0.1085937E+00 -0.1780389E+00  0.2902352E-02  0.5786666E-02  0.0000000E+00
  0.9375000E+00  0.2904349E+01 -0.4448087E+00  0.1832568E+00 -0.3499680E+01 -0.1750856E+00 -0.1602254E+00 -0.2962319E-03  0.3375555E-02  0.0000000E+00
  0.9562500E+00  0.1399894E+01 -0.4093336E+00  0.2148988E+00 -0.3527112E+01 -0.2395476E+00 -0.1401218E+00 -0.2985186E-02  0.1446667E-02  0.0000000E+00
  0.9750000E+00 -0.1211343E+00 -0.4038959E+00  0.2601025E+00 -0.3503599E+01 -0.3011335E+00 -0.1187830E+00 -0.5170050E-02 -0.1446667E-02  0.0000000E+00
  0.9937500E+00 -0.1626773E+01 -0.4265417E+00  0.3074148E+00 -0.3427330E+01 -0.3590260E+00 -0.9626851E-01 -0.6857058E-02 -0.2411111E-02  0.0000000E+00
  0.1012500E+01 -0.3086636E+01 -0.4749071E+00  0.3333284E+00 -0.3297706E+01 -0.4124566E+00 -0.7275901E-01 -0.8055275E-02 -0.9644443E-03  0.0000000E+00
  0.1031250E+01 -0.4475067E+01 -0.5463385E+00  0.3282012E+00 -0.3126492E+01 -0.4609215E+00 -0.4753086E-01 -0.8760196E-02  0.2893333E-02  0.0000000E+00
  0.1050000E+01 -0.5771146E+01 -0.6380017E+00  0.3004728E+00 -0.2918816E+01 -0.5040424E+00 -0.2142864E-01 -0.8982449E-02  0.5786666E-02  0.0000000E+00
  0.1068750E+01 -0.6961454E+01 -0.7470268E+00  0.2763630E+00 -0.2683725E+01 -0.5416232E+00  0.5306049E-02 -0.8736095E-02  0.5786666E-02  0.0000000E+00
  0.1087500E+01 -0.8037311E+01 -0.8705909E+00  0.2691284E+00 -0.2421210E+01 -0.5734805E+00  0.3225124E-01 -0.8041395E-02  0.2893333E-02  0.0000000E+00
  0.1106250E+01 -0.8995954E+01 -0.1006014E+01  0.2739457E+00 -0.2140005E+01 -0.5995893E+00  0.5992000E-01 -0.6908705E-02 -0.4822222E-03  0.0000000E+00
  0.1125000E+01 -0.9836199E+01 -0.1150771E+01  0.2682136E+00 -0.1834678E+01 -0.6198366E+00  0.8701666E-01 -0.5368945E-02 -0.3880511E-10  0.0000000E+00
  0.1143750E+01 -0.1055725E+02 -0.1302488E+01  0.2353630E+00 -0.1500409E+01 -0.6340394E+00  0.1122448E+00 -0.3471948E-02  0.5304444E-02  0.0000000E+00
  0.1162500E+01 -0.1115398E+02 -0.1458861E+01  0.1753963E+00 -0.1129970E+01 -0.6419113E+00  0.1346093E+00 -0.1280183E-02  0.1350222E-01  0.0000000E+00
  0.1181250E+01 -0.1161731E+02 -0.1617587E+01  0.1042815E+00 -0.7435642E+00 -0.6434997E+00  0.1550445E+00  0.1162389E-02  0.1784222E-01  0.0000000E+00
  0.1200000E+01 -0.1193541E+02 -0.1776323E+01  0.4099753E-01 -0.3589740E+00 -0.6391224E+00  0.1740031E+00  0.3821477E-02  0.1494889E-01  0.0000000E+00
  0.1218750E+01 -0.1209762E+02 -0.1932706E+01 -0.4814813E-02  0.1175186E-01 -0.6292606E+00  0.1911237E+00  0.6659389E-02  0.5786666E-02  0.0000000E+00
  0.1237500E+01 -0.1209684E+02 -0.2084409E+01 -0.3405555E-01  0.3833889E+00 -0.6141465E+00  0.2051098E+00  0.9621335E-02 -0.3857777E-02  0.0000000E+00
  0.1256250E+01 -0.1193109E+02 -0.2229213E+01 -0.4973456E-01  0.7529259E+00 -0.5940424E+00  0.2151768E+00  0.1264421E-01 -0.9644443E-02  0.0000000E+00
  0.1275000E+01 -0.1160274E+02 -0.2365062E+01 -0.5365926E-01  0.1118244E+01 -0.5692267E+00  0.2213248E+00  0.1566857E-01 -0.1060889E-01  0.0000000E+00
  0.1293750E+01 -0.1111889E+02 -0.2490116E+01 -0.4402098E-01  0.1465170E+01 -0.5401639E+00  0.2238558E+00  0.1864267E-01 -0.7715555E-02  0.0000000E+00
  0.1312500E+01 -0.1048783E+02 -0.2602760E+01 -0.2684692E-01  0.1803042E+01 -0.5071610E+00  0.2234036E+00  0.2152663E-01 -0.2893333E-02  0.0000000E+00
  0.1331250E+01 -0.9718634E+01 -0.2701592E+01 -0.9064201E-02  0.2120410E+01 -0.4706669E+00  0.2203900E+00  0.2428862E-01  0.2893333E-02  0.0000000E+00
  0.1350000E+01 -0.8817616E+01 -0.2785373E+01  0.4203700E-02  0.2405527E+01 -0.4312670E+00  0.2155679E+00  0.2690888E-01  0.7233332E-02  0.0000000E+00
  0.1368750E+01 -0.7793461E+01 -0.2853050E+01  0.2019259E-01  0.2633986E+01 -0.3898446E+00  0.2086953E+00  0.2936546E-01  0.8679999E-02  0.0000000E+00
  0.1387500E+01 -0.6657221E+01 -0.2903772E+01  0.5004692E-01  0.2810914E+01 -0.3471679E+00  0.1992900E+00  0.3163112E-01  0.6268888E-02  0.0000000E+00
  0.1406250E+01 -0.5425867E+01 -0.2936958E+01  0.9526791E-01  0.2944143E+01 -0.3038611E+00  0.1864183E+00  0.3366779E-01  0.2411111E-02  0.0000000E+00
  0.1425000E+01 -0.4117161E+01 -0.2952285E+01  0.1459012E+00  0.3044525E+01 -0.2603756E+00  0.1706836E+00  0.3544722E-01  0.9644444E-03  0.0000000E+00
  0.1443750E+01 -0.2749260E+01 -0.2949682E+01  0.1820593E+00  0.3105727E+01 -0.2172205E+00  0.1526589E+00  0.3694993E-01  0.4340000E-02  0.0000000E+00
  0.1462500E+01 -0.1338344E+01 -0.2929285E+01  0.1950099E+00  0.3124131E+01 -0.1749249E+00  0.1330374E+00  0.3816623E-01  0.1109111E-01  0.0000000E+00
  0.1481250E+01  0.1005896E+00 -0.2891412E+01  0.1853642E+00  0.3097621E+01 -0.1340180E+00  0.1113067E+00  0.3908048E-01  0.1687778E-01  0.0000000E+00
  0.1500000E+01  0.1552155E+01 -0.2836553E+01  0.1693963E+00  0.3027700E+01 -0.9498449E-01  0.8800889E-01  0.3968454E-01  0.1928889E-01  0.0000000E+00
  0.1518750E+01  0.3000173E+01 -0.2765373E+01  0.1627728E+00  0.2914367E+01 -0.5828509E-01  0.6341469E-01  0.3997393E-01  0.1928889E-01  0.0000000E+00
  0.1537500E+01  0.4423727E+01 -0.2678758E+01  0.1751358E+00  0.2760334E+01 -0.2432582E-01  0.3809617E-01  0.3995131E-01  0.1880666E-01  0.0000000E+00
  0.1556250E+01  0.5800319E+01 -0.2577816E+01  0.2028691E+00  0.2576157E+01  0.6632308E-02  0.1145050E-01  0.3961201E-01  0.1736000E-01  0.0000000E+00
  0.1575000E+01  0.7104687E+01 -0.2463905E+01  0.2357272E+00  0.2366359E+01  0.3439380E-01 -0.1588877E-01  0.3895906E-01  0.1253778E-01  0.0000000E+00
  0.1593750E+01  0.8314336E+01 -0.2338576E+01  0.2643630E+00  0.2131248E+01  0.5877582E-01 -0.4334802E-01  0.3800200E-01  0.4822222E-02  0.0000000E+00
  0.1612500E+01  0.9407166E+01 -0.2203568E+01  0.2833481E+00  0.1862988E+01  0.7951389E-01 -0.6966098E-01  0.3676450E-01 -0.2411111E-02  0.0000000E+00
  0.1631250E+01  0.1036581E+02 -0.2060734E+01  0.2878605E+00  0.1570619E+01  0.9645826E-01 -0.9473716E-01  0.3527016E-01 -0.5786666E-02  0.0000000E+00
  0.1650000E+01  0.1117527E+02 -0.1912015E+01  0.2779062E+00  0.1257154E+01  0.1094998E+00 -0.1177635E+00  0.3355068E-01 -0.6268888E-02  0.0000000E+00
  0.1668750E+01  0.1182529E+02 -0.1759378E+01  0.2583148E+00  0.9265148E+00  0.1185777E+00 -0.1387102E+00  0.3163667E-01 -0.6751110E-02  0.0000000E+00
  0.1687500E+01  0.1230441E+02 -0.1604831E+01  0.2405407E+00  0.5690555E+00  0.1235280E+00 -0.1574576E+00  0.2955871E-01 -0.8679999E-02  0.0000000E+00
  0.1706250E+01  0.1260199E+02 -0.1450409E+01  0.2281951E+00  0.2010481E+00  0.1243706E+00 -0.1746082E+00  0.2733951E-01 -0.1109111E-01  0.0000000E+00
  0.1725000E+01  0.1270738E+02 -0.1298175E+01  0.2185543E+00 -0.1618383E+00  0.1212931E+00 -0.1895283E+00  0.2500759E-01 -0.1253778E-01  0.0000000E+00
  0.1743750E+01  0.1261741E+02 -0.1150136E+01  0.2052840E+00 -0.5015222E+00  0.1146674E+00 -0.2013432E+00  0.2259961E-01 -0.1253778E-01  0.0000000E+00
  0.1762500E+01  0.1233405E+02 -0.1008198E+01  0.1907975E+00 -0.8279469E+00  0.1047452E+00 -0.2094805E+00  0.2015666E-01 -0.1060889E-01  0.0000000E+00
  0.1781250E+01  0.1186558E+02 -0.8740957E+00  0.1814333E+00 -0.1138700E+01  0.9179262E-01 -0.2145736E+00  0.1771155E-01 -0.6268888E-02  0.0000000E+00
  0.1800000E+01  0.1122226E+02 -0.7493910E+00  0.1799111E+00 -0.1434684E+01  0.7605575E-01 -0.2170751E+00  0.1529107E-01 -0.4822221E-03  0.0000000E+00
  0.1818750E+01  0.1041911E+02 -0.6354268E+00  0.1823160E+00 -0.1706859E+01  0.5786274E-01 -0.2162314E+00  0.1292860E-01  0.3375555E-02  0.0000000E+00
  0.1837500E+01  0.9472694E+01 -0.5333245E+00  0.1826210E+00 -0.1963667E+01  0.3744325E-01 -0.2110174E+00  0.1066651E-01  0.1928889E-02  0.0000000E+00
  0.1856250E+01  0.8398023E+01 -0.4440110E+00  0.1838383E+00 -0.2202696E+01  0.1504186E-01 -0.2012220E+00  0.8547630E-02 -0.5304444E-02  0.0000000E+00
  0.1875000E+01  0.7205750E+01 -0.3682708E+00  0.1941025E+00 -0.2421535E+01 -0.9082660E-02 -0.1886835E+00  0.6594847E-02 -0.1446667E-01  0.0000000E+00
  0.1893750E+01  0.5905346E+01 -0.3067648E+00  0.2209432E+00 -0.2608121E+01 -0.3456343E-01 -0.1744869E+00  0.4819536E-02 -0.2170000E-01  0.0000000E+00
  0.1912500E+01  0.4512589E+01 -0.2599750E+00  0.2613432E+00 -0.2757628E+01 -0.6100095E-01 -0.1588437E+00  0.3230572E-02 -0.2459333E-01  0.0000000E+00
  0.1931250E+01  0.3051154E+01 -0.2281372E+00  0.3002296E+00 -0.2860712E+01 -0.8792125E-01 -0.1399157E+00  0.1854166E-02 -0.2411111E-01  0.0000000E+00
  0.1950000E+01  0.1551823E+01 -0.2111852E+00  0.3246420E+00 -0.2908633E+01 -0.1147852E+00 -0.1177632E+00  0.7149528E-03 -0.2121778E-01  0.0000000E+00
  0.1968750E+01  0.4617526E-01 -0.2087572E+00  0.3258408E+00 -0.2895970E+01 -0.1410228E+00 -0.9304864E-01 -0.1696094E-03 -0.1784222E-01  0.0000000E+00
  0.1987500E+01 -0.1435004E+01 -0.2202175E+00  0.3125716E+00 -0.2825437E+01 -0.1661108E+00 -0.6803185E-01 -0.8038359E-03 -0.1494889E-01  0.0000000E+00
  0.2006250E+01 -0.2866451E+01 -0.2447196E+00  0.2908667E+00 -0.2706077E+01 -0.1896290E+00 -0.4319481E-01 -0.1196345E-02 -0.1350222E-01  0.0000000E+00
  0.2025000E+01 -0.4228830E+01 -0.2812711E+00  0.2715778E+00 -0.2537886E+01 -0.2111726E+00 -0.1926148E-01 -0.1362080E-02 -0.1302000E-01  0.0000000E+00
  0.2043750E+01 -0.5511092E+01 -0.3288150E+00  0.2592235E+00 -0.2321470E+01 -0.2303571E+00  0.4490988E-02 -0.1308871E-02 -0.1205555E-01  0.0000000E+00
  0.2062500E+01 -0.6704949E+01 -0.3862576E+00  0.2667617E+00 -0.2057432E+01 -0.2468173E+00  0.2824309E-01 -0.1042637E-02 -0.9162221E-02  0.0000000E+00
  0.2081250E+01 -0.7801724E+01 -0.4524671E+00  0.2987111E+00 -0.1769283E+01 -0.2604107E+00  0.5314013E-01 -0.5588619E-03 -0.3375555E-02  0.0000000E+00
  0.2100000E+01 -0.8787601E+01 -0.5262294E+00  0.3430136E+00 -0.1471486E+01 -0.2711282E+00  0.7876012E-01  0.1430760E-03  0.2893333E-02  0.0000000E+00
  0.2118750E+01 -0.9647585E+01 -0.6062413E+00  0.3680210E+00 -0.1172781E+01 -0.2790374E+00  0.1049524E+00  0.1062456E-02  0.6751110E-02  0.0000000E+00
  0.2137500E+01 -0.1036864E+02 -0.6911317E+00  0.3445000E+00 -0.8541802E+00 -0.2840387E+00  0.1305716E+00  0.2188622E-02  0.4822222E-02  0.0000000E+00
  0.2156250E+01 -0.1094288E+02 -0.7795088E+00  0.2727568E+00 -0.5141827E+00 -0.2860227E+00  0.1552564E+00  0.3508172E-02 -0.1928889E-02  0.0000000E+00
  0.2175000E+01 -0.1136477E+02 -0.8699812E+00  0.1787148E+00 -0.1491741E+00 -0.2848530E+00  0.1772890E+00  0.4993478E-02 -0.1060889E-01  0.0000000E+00
  0.2193750E+01 -0.1162957E+02 -0.9611641E+00  0.9643333E-01  0.2284901E+00 -0.2805027E+00  0.1954938E+00  0.6607888E-02 -0.1639555E-01  0.0000000E+00
  0.2212500E+01 -0.1173335E+02 -0.1051687E+01  0.4098025E-01  0.6206235E+00 -0.2729302E+00  0.2092377E+00  0.8310659E-02 -0.1687778E-01  0.0000000E+00
  0.2231250E+01 -0.1167809E+02 -0.1140240E+01  0.1114815E-01  0.1009741E+01 -0.2622412E+00  0.2199068E+00  0.1007396E-01 -0.1253778E-01  0.0000000E+00
  0.2250000E+01 -0.1147128E+02 -0.1225621E+01 -0.1807403E-02  0.1384384E+01 -0.2486328E+00  0.2289783E+00  0.1188309E-01 -0.6751110E-02  0.0000000E+00
  0.2268750E+01 -0.1112516E+02 -0.1306764E+01 -0.3914811E-02  0.1730989E+01 -0.2324064E+00  0.2370253E+00  0.1372851E-01 -0.2893333E-02  0.0000000E+00
  0.2287500E+01 -0.1064684E+02 -0.1382700E+01  0.3620990E-02  0.2056195E+01 -0.2137998E+00  0.2429933E+00  0.1559246E-01 -0.2411111E-02  0.0000000E+00
  0.2306250E+01 -0.1003551E+02 -0.1452481E+01  0.1989877E-01  0.2356995E+01 -0.1930676E+00  0.2453754E+00  0.1744555E-01 -0.4340000E-02  0.0000000E+00
  0.2325000E+01 -0.9282499E+01 -0.1515121E+01  0.4371111E-01  0.2630978E+01 -0.1704753E+00  0.2432369E+00  0.1925188E-01 -0.5304444E-02  0.0000000E+00
  0.2343750E+01 -0.8379909E+01 -0.1569603E+01  0.6541111E-01  0.2872108E+01 -0.1463278E+00  0.2366979E+00  0.2097764E-01 -0.2893333E-02  0.0000000E+00
  0.2362500E+01 -0.7330892E+01 -0.1614968E+01  0.7384568E-01  0.3085202E+01 -0.1208827E+00  0.2266017E+00  0.2259673E-01  0.3375555E-02  0.0000000E+00
  0.2381250E+01 -0.6150051E+01 -0.1650398E+01  0.6299136E-01  0.3266948E+01 -0.9441525E-01  0.2138220E+00  0.2409067E-01  0.9162221E-02  0.0000000E+00
  0.2400000E+01 -0.4864224E+01 -0.1675312E+01  0.4611358E-01  0.3408610E+01 -0.6726002E-01  0.1989916E+00  0.2544650E-01  0.1157333E-01  0.0000000E+00
  0.2418750E+01 -0.3500648E+01 -0.1689353E+01  0.4340617E-01  0.3499640E+01 -0.3982233E-01  0.1818399E+00  0.2664952E-01  0.8197777E-02  0.0000000E+00
  0.2437500E+01 -0.2085772E+01 -0.1692379E+01  0.6812470E-01  0.3539131E+01 -0.1250208E-01  0.1620663E+00  0.2768324E-01  0.1446666E-02  0.0000000E+00
  0.2456250E+01 -0.6373577E+00 -0.1684386E+01  0.1085086E+00  0.3531600E+01  0.1434718E-01  0.1396412E+00  0.2853140E-01 -0.6751110E-02  0.0000000E+00
  0.2475000E+01  0.8292075E+00 -0.1665487E+01  0.1404457E+00  0.3477951E+01  0.4038931E-01  0.1157705E+00  0.2918734E-01 -0.1157333E-01  0.0000000E+00
  0.2493750E+01  0.2299717E+01 -0.1635896E+01  0.1422420E+00  0.3380294E+01  0.6531397E-01  0.9099618E-01  0.2964860E-01 -0.1012667E-01  0.0000000E+00
  0.2512500E+01  0.3755624E+01 -0.1595959E+01  0.1136037E+00  0.3239235E+01  0.8882450E-01  0.6525741E-01  0.2991237E-01 -0.2411111E-02  0.0000000E+00
  0.2531250E+01  0.5176800E+01 -0.1546159E+01  0.7502840E-01  0.3064720E+01  0.1107061E+00  0.3783013E-01  0.2997059E-01  0.7233333E-02  0.0000000E+00
  0.2550000E+01  0.6541934E+01 -0.1487122E+01  0.5484198E-01  0.2856147E+01  0.1307458E+00  0.9648396E-02  0.2982225E-01  0.1350222E-01  0.0000000E+00
  0.2568750E+01  0.7830109E+01 -0.1419606E+01  0.6991728E-01  0.2616832E+01  0.1487609E+00 -0.1862444E-01  0.2947119E-01  0.1543111E-01  0.0000000E+00
  0.2587500E+01  0.9019621E+01 -0.1344503E+01  0.1100049E+00  0.2344363E+01  0.1645566E+00 -0.4680716E-01  0.2892242E-01  0.1446666E-01  0.0000000E+00
  0.2606250E+01  0.1009034E+02 -0.1262826E+01  0.1485852E+00  0.2055316E+01  0.1780620E+00 -0.7634593E-01  0.2817050E-01  0.1302000E-01  0.0000000E+00
  0.2625000E+01  0.1102452E+02 -0.1175681E+01  0.1612481E+00  0.1752402E+01  0.1892276E+00 -0.1065474E+00  0.2721506E-01  0.1109111E-01  0.0000000E+00
  0.2643750E+01  0.1180793E+02 -0.1084248E+01  0.1467877E+00  0.1433815E+01  0.1979923E+00 -0.1356331E+00  0.2606824E-01  0.8197777E-02  0.0000000E+00
  0.2662500E+01  0.1242637E+02 -0.9897677E+00  0.1205728E+00  0.1079960E+01  0.2041599E+00 -0.1607704E+00  0.2476168E-01  0.4822222E-02  0.0000000E+00
  0.2681250E+01  0.1286484E+02 -0.8935551E+00  0.1000790E+00  0.6974691E+00  0.2075856E+00 -0.1816883E+00  0.2332800E-01  0.1446667E-02  0.0000000E+00
  0.2700000E+01  0.1310755E+02 -0.7969958E+00  0.8952346E-01  0.2977926E+00  0.2082078E+00 -0.1987789E+00  0.2179622E-01 -0.1446667E-02  0.0000000E+00
  0.2718750E+01  0.1314110E+02 -0.7015294E+00  0.8348025E-01 -0.9676174E-01  0.2061189E+00 -0.2133074E+00  0.2018593E-01 -0.5304444E-02  0.0000000E+00
  0.2737500E+01  0.1295758E+02 -0.6086103E+00  0.8075185E-01 -0.4843791E+00  0.2014217E+00 -0.2251528E+00  0.1851696E-01 -0.1012667E-01  0.0000000E+00
  0.2756250E+01  0.1255740E+02 -0.5196508E+00  0.8707407E-01 -0.8560124E+00  0.1942768E+00 -0.2339836E+00  0.1681087E-01 -0.1591333E-01  0.0000000E+00
  0.2775000E+01  0.1195397E+02 -0.4359352E+00  0.1093852E+00 -0.1215885E+01  0.1848127E+00 -0.2387453E+00  0.1509573E-01 -0.2025333E-01  0.0000000E+00
  0.2793750E+01  0.1117097E+02 -0.3585558E+00  0.1419531E+00 -0.1564006E+01  0.1731539E+00 -0.2391370E+00  0.1340085E-01 -0.2121778E-01  0.0000000E+00
  0.2812500E+01  0.1023799E+02 -0.2883800E+00  0.1724099E+00 -0.1907014E+01  0.1593779E+00 -0.2358220E+00  0.1175036E-01 -0.1687778E-01  0.0000000E+00
  0.2831250E+01  0.9177130E+01 -0.2261069E+00  0.1892938E+00 -0.2226217E+01  0.1436832E+00 -0.2303672E+00  0.1015748E-01 -0.8197777E-02  0.0000000E+00
  0.2850000E+01  0.8003397E+01 -0.1723193E+00  0.1889889E+00 -0.2504128E+01  0.1263773E+00 -0.2236464E+00  0.8629355E-02  0.1446666E-02  0.0000000E+00
  0.2868750E+01  0.6724292E+01 -0.1275361E+00  0.1790346E+00 -0.2730794E+01  0.1078242E+00 -0.2145141E+00  0.7180372E-02  0.9162221E-02  0.0000000E+00
  0.2887500E+01  0.5352447E+01 -0.9218141E-01  0.1730012E+00 -0.2925203E+01  0.8825629E-01 -0.2008602E+00  0.5838174E-02  0.1350222E-01  0.0000000E+00
  0.2906250E+01  0.3903249E+01 -0.6656968E-01  0.1901815E+00 -0.3097304E+01  0.6783603E-01 -0.1816300E+00  0.4636455E-02  0.1543111E-01  0.0000000E+00
  0.2925000E+01  0.2400765E+01 -0.5085417E-01  0.2402235E+00 -0.3244989E+01  0.4673523E-01 -0.1584211E+00  0.3597872E-02  0.1398444E-01  0.0000000E+00
  0.2943750E+01  0.8710451E+00 -0.4501936E-01  0.3201087E+00 -0.3348665E+01  0.2524535E-01 -0.1331627E+00  0.2732299E-02  0.1012667E-01  0.0000000E+00
  0.2962500E+01 -0.6531531E+00 -0.4884410E-01  0.4093383E+00 -0.3401399E+01  0.3694132E-02 -0.1068498E+00  0.2043103E-02  0.5304444E-02  0.0000000E+00
  0.2981250E+01 -0.2143409E+01 -0.6193513E-01  0.4792704E+00 -0.3402889E+01 -0.1759701E-01 -0.7872865E-01  0.1538280E-02  0.3857777E-02  0.0000000E+00
  0.3000000E+01 -0.3574462E+01 -0.8375207E-01  0.5051889E+00 -0.3353441E+01 -0.3831654E-01 -0.4961321E-01  0.1220569E-02  0.4822222E-02  0.0000000E+00
  0.3018750E+01 -0.4930918E+01 -0.1136728E+00  0.4789543E+00 -0.3245525E+01 -0.5811412E-01 -0.2061827E-01  0.1085761E-02  0.5304444E-02  0.0000000E+00
  0.3037500E+01 -0.6196201E+01 -0.1509890E+00  0.4153420E+00 -0.3070102E+01 -0.7659257E-01  0.6417654E-02  0.1118472E-02  0.4822222E-03  0.0000000E+00
  0.3056250E+01 -0.7354527E+01 -0.1949130E+00  0.3390704E+00 -0.2833204E+01 -0.9340118E-01  0.3212766E-01  0.1307552E-02 -0.8197777E-02  0.0000000E+00
  0.3075000E+01 -0.8386961E+01 -0.2445618E+00  0.2697370E+00 -0.2542663E+01 -0.1082452E+00  0.5672235E-01  0.1643400E-02 -0.1687778E-01  0.0000000E+00
  0.3093750E+01 -0.9281278E+01 -0.2989998E+00  0.2067407E+00 -0.2216258E+01 -0.1209441E+00  0.8116617E-01  0.2122452E-02 -0.2121778E-01  0.0000000E+00
  0.3112500E+01 -0.1003195E+02 -0.3572810E+00  0.1419444E+00 -0.1864230E+01 -0.1313829E+00  0.1050070E+00  0.2738528E-02 -0.2025333E-01  0.0000000E+00
  0.3131250E+01 -0.1064174E+02 -0.4184980E+00  0.6811111E-01 -0.1510083E+01 -0.1395894E+00  0.1281851E+00  0.3485233E-02 -0.1591333E-01  0.0000000E+00
  0.3150000E+01 -0.1111458E+02 -0.4817884E+00 -0.7530864E-02 -0.1155926E+01 -0.1456033E+00  0.1500977E+00  0.4352762E-02 -0.9644443E-02  0.0000000E+00
  0.3168750E+01 -0.1145085E+02 -0.5463123E+00 -0.7594321E-01 -0.7972420E+00 -0.1494364E+00  0.1705941E+00  0.5330653E-02 -0.3375555E-02  0.0000000E+00
  0.3187500E+01 -0.1164581E+02 -0.6112217E+00 -0.1265790E+00 -0.4135370E+00 -0.1509809E+00  0.1897042E+00  0.6408861E-02  0.2893333E-02  0.0000000E+00
  0.3206250E+01 -0.1169236E+02 -0.6756468E+00 -0.1561197E+00 -0.1506173E-01 -0.1501907E+00  0.2068853E+00  0.7574422E-02  0.7233332E-02  0.0000000E+00
  0.3225000E+01 -0.1158615E+02 -0.7387133E+00 -0.1630556E+00  0.3846197E+00 -0.1470993E+00  0.2209619E+00  0.8807875E-02  0.9162221E-02  0.0000000E+00
  0.3243750E+01 -0.1132841E+02 -0.7995736E+00 -0.1510000E+00  0.7674173E+00 -0.1418434E+00  0.2304267E+00  0.1008155E-01  0.7233332E-02  0.0000000E+00
  0.3262500E+01 -0.1092505E+02 -0.8574335E+00 -0.1259839E+00  0.1142070E+01 -0.1345068E+00  0.2350082E+00  0.1136684E-01  0.2893333E-02  0.0000000E+00
  0.3281250E+01 -0.1038320E+02 -0.9115571E+00 -0.9675185E-01  0.1505565E+01 -0.1251882E+00  0.2355501E+00  0.1264061E-01 -0.3375555E-02  0.0000000E+00
  0.3300000E+01 -0.9705191E+01 -0.9612386E+00 -0.7084074E-01  0.1854293E+01 -0.1140047E+00  0.2329270E+00  0.1388517E-01 -0.9162221E-02  0.0000000E+00
  0.3318750E+01 -0.8890615E+01 -0.1005786E+01 -0.4945062E-01  0.2172882E+01 -0.1011570E+00  0.2270190E+00  0.1508255E-01 -0.1446666E-01  0.0000000E+00
  0.3337500E+01 -0.7940648E+01 -0.1044528E+01 -0.2745062E-01  0.2460125E+01 -0.8684815E-01  0.2169222E+00  0.1621014E-01 -0.1784222E-01  0.0000000E+00
  0.3356250E+01 -0.6865958E+01 -0.1076869E+01  0.5888879E-03  0.2714509E+01 -0.7128505E-01  0.2026060E+00  0.1724568E-01 -0.2025333E-01  0.0000000E+00
  0.3375000E+01 -0.5685112E+01 -0.1102329E+01  0.3165062E-01  0.2935130E+01 -0.5467502E-01  0.1854864E+00  0.1817518E-01 -0.2025333E-01  0.0000000E+00
  0.3393750E+01 -0.4420609E+01 -0.1120561E+01  0.5638519E-01  0.3116267E+01 -0.3725227E-01  0.1675521E+00  0.1899593E-01 -0.1736000E-01  0.0000000E+00
  0.3412500E+01 -0.3093755E+01 -0.1131344E+01  0.6785186E-01  0.3249789E+01 -0.1929029E-01  0.1498284E+00  0.1971086E-01 -0.1109111E-01  0.0000000E+00
  0.3431250E+01 -0.1722302E+01 -0.1134555E+01  0.6664938E-01  0.3332078E+01 -0.1076337E-02  0.1318036E+00  0.2032006E-01 -0.3857777E-02  0.0000000E+00
  0.3450000E+01 -0.3208531E+00 -0.1130157E+01  0.6001111E-01  0.3358605E+01  0.1708410E-01  0.1121521E+00  0.2081645E-01  0.9644444E-03  0.0000000E+00
  0.3468750E+01  0.1097967E+01 -0.1118178E+01  0.5306790E-01  0.3332680E+01  0.3490989E-01  0.8948741E-01  0.2118565E-01  0.1928889E-02  0.0000000E+00
  0.3487500E+01  0.2519556E+01 -0.1098725E+01  0.5034445E-01  0.3253705E+01  0.5212270E-01  0.6356815E-01  0.2141230E-01 -0.4822222E-03  0.0000000E+00
  0.3506250E+01  0.3927337E+01 -0.1071990E+01  0.5244568E-01  0.3129220E+01  0.6849024E-01  0.3547877E-01  0.2148712E-01 -0.4340000E-02  0.0000000E+00
  0.3525000E+01  0.5304727E+01 -0.1038251E+01  0.5906790E-01  0.2958022E+01  0.8377876E-01  0.7358519E-02  0.2141236E-01 -0.7715554E-02  0.0000000E+00
  0.3543750E+01  0.6635932E+01 -0.9978607E+00  0.6237901E-01  0.2746436E+01  0.9779274E-01 -0.2013025E-01  0.2119372E-01 -0.9162221E-02  0.0000000E+00
  0.3562500E+01  0.7903186E+01 -0.9512584E+00  0.5122963E-01  0.2496870E+01  0.1103534E+00 -0.4734901E-01  0.2083486E-01 -0.7233332E-02  0.0000000E+00
  0.3581250E+01  0.9081234E+01 -0.8990058E+00  0.1868765E-01  0.2226505E+01  0.1213750E+00 -0.7514074E-01  0.2033498E-01 -0.2893333E-02  0.0000000E+00
  0.3600000E+01  0.1014009E+02 -0.8418084E+00 -0.2862346E-01  0.1936853E+01  0.1307816E+00 -0.1019369E+00  0.1970145E-01  0.2893333E-02  0.0000000E+00
  0.3618750E+01  0.1104821E+02 -0.7805197E+00 -0.7563951E-01  0.1622486E+01  0.1384708E+00 -0.1258385E+00  0.1895124E-01  0.7233332E-02  0.0000000E+00
  0.3637500E+01  0.1177992E+02 -0.7161072E+00 -0.1103049E+00  0.1262607E+01  0.1442356E+00 -0.1455502E+00  0.1810765E-01  0.8679999E-02  0.0000000E+00