TITLE = "PITCH AND HEAVE TRANSFER FUNCTION DATA FOR MODEL 5512 WO BILGE KEELS"
VARIABLES = f, fe, xa, xph, ya, yph, za, zph, rolla, rollph, pitcha, pitchph, yawa, yawph, U_f_e, U_TF_x5, U_gamma_x5, U_TF_x3, U_gamma_x3
ZONE T="Fr=0.280,  Ak=0.075", i=    5, j=  1, k=  1, F=POINT
  0.1012200E+01  0.2018200E+01  0.0000000E+00  0.0000000E+00  0.0000000E+00  0.0000000E+00  0.7094035E-01  0.3495391E+02  0.0000000E+00  0.0000000E+00  0.2167411E-01 -0.8408807E+02  0.0000000E+00  0.0000000E+00  0.0000000E+00  0.0000000E+00  0.0000000E+00  0.0000000E+00  0.0000000E+00
  0.9240000E+00  0.1760800E+01  0.0000000E+00  0.0000000E+00  0.0000000E+00  0.0000000E+00  0.1148165E+00  0.1884168E+02  0.0000000E+00  0.0000000E+00  0.1826898E-01 -0.1461343E+03  0.0000000E+00  0.0000000E+00  0.0000000E+00  0.0000000E+00  0.0000000E+00  0.0000000E+00  0.0000000E+00
  0.8494000E+00  0.1554000E+01  0.0000000E+00  0.0000000E+00  0.0000000E+00  0.0000000E+00  0.1448616E+00 -0.1333915E+02  0.0000000E+00  0.0000000E+00  0.8881590E-01 -0.2039134E+03  0.0000000E+00  0.0000000E+00  0.0000000E+00  0.0000000E+00  0.0000000E+00  0.0000000E+00  0.0000000E+00
  0.7763000E+00  0.1364800E+01  0.0000000E+00  0.0000000E+00  0.0000000E+00  0.0000000E+00  0.3638904E+00 -0.4442839E+02  0.0000000E+00  0.0000000E+00  0.2821323E+00 -0.1954288E+03  0.0000000E+00  0.0000000E+00  0.0000000E+00  0.0000000E+00  0.0000000E+00  0.0000000E+00  0.0000000E+00
  0.7157000E+00  0.1217400E+01  0.0000000E+00  0.0000000E+00  0.0000000E+00  0.0000000E+00  0.7476354E+00 -0.3430886E+02  0.0000000E+00  0.0000000E+00  0.5462065E+00 -0.1791944E+03  0.0000000E+00  0.0000000E+00  0.0000000E+00  0.0000000E+00  0.0000000E+00  0.0000000E+00  0.0000000E+00
