TITLE = "PITCH AND HEAVE TRANSFER FUNCTION DATA FOR MODEL 5512 WO BILGE KEELS"
VARIABLES = f, fe, xa, xph, ya, yph, za, zph, rolla, rollph, pitcha, pitchph, yawa, yawph, U_f_e, U_TF_x5, U_gamma_x5, U_TF_x3, U_gamma_x3
ZONE T="Fr=0.000,  Ak=0.075", i=    6, j=  1, k=  1, F=POINT
  0.1012200E+01  0.1012800E+01  0.0000000E+00  0.0000000E+00  0.0000000E+00  0.0000000E+00  0.3590705E+00  0.4503965E+02  0.0000000E+00  0.0000000E+00  0.8207226E-01  0.3640300E+01  0.0000000E+00  0.0000000E+00  0.0000000E+00  0.0000000E+00  0.0000000E+00  0.0000000E+00  0.0000000E+00
  0.9480000E+00  0.9468000E+00  0.0000000E+00  0.0000000E+00  0.0000000E+00  0.0000000E+00  0.1476049E+00  0.1557852E+03  0.0000000E+00  0.0000000E+00  0.6493691E-01 -0.5036785E+02  0.0000000E+00  0.0000000E+00  0.0000000E+00  0.0000000E+00  0.0000000E+00  0.0000000E+00  0.0000000E+00
  0.8494000E+00  0.8478000E+00  0.0000000E+00  0.0000000E+00  0.0000000E+00  0.0000000E+00  0.2019525E+00  0.1030698E+03  0.0000000E+00  0.0000000E+00  0.1227071E+00 -0.7269395E+02  0.0000000E+00  0.0000000E+00  0.0000000E+00  0.0000000E+00  0.0000000E+00  0.0000000E+00  0.0000000E+00
  0.7157000E+00  0.7158000E+00  0.0000000E+00  0.0000000E+00  0.0000000E+00  0.0000000E+00  0.3073801E+00  0.3315863E+02  0.0000000E+00  0.0000000E+00  0.4112245E+00 -0.1148127E+03  0.0000000E+00  0.0000000E+00  0.0000000E+00  0.0000000E+00  0.0000000E+00  0.0000000E+00  0.0000000E+00
  0.6506000E+00  0.6498000E+00  0.0000000E+00  0.0000000E+00  0.0000000E+00  0.0000000E+00  0.4847130E+00  0.1501028E+02  0.0000000E+00  0.0000000E+00  0.7069572E+00 -0.1065286E+03  0.0000000E+00  0.0000000E+00  0.0000000E+00  0.0000000E+00  0.0000000E+00  0.0000000E+00  0.0000000E+00
  0.5844000E+00  0.5838000E+00  0.0000000E+00  0.0000000E+00  0.0000000E+00  0.0000000E+00  0.6205816E+00  0.1075411E+02  0.0000000E+00  0.0000000E+00  0.7875491E+00 -0.1002398E+03  0.0000000E+00  0.0000000E+00  0.0000000E+00  0.0000000E+00  0.0000000E+00  0.0000000E+00  0.0000000E+00
