TITLE = "PITCH AND HEAVE TRANSFER FUNCTION DATA FOR MODEL 5512 WO BILGE KEELS"
VARIABLES = f, fe, xa, xph, ya, yph, za, zph, rolla, rollph, pitcha, pitchph, yawa, yawph, U_f_e, U_TF_x5, U_gamma_x5, U_TF_x3, U_gamma_x3
ZONE T="Fr=0.280,  Ak=0.050", i=    8, j=  1, k=  1, F=POINT
  0.1012200E+01  0.2020400E+01  0.0000000E+00  0.0000000E+00  0.0000000E+00  0.0000000E+00  0.6637567E-01  0.3675475E+02  0.0000000E+00  0.0000000E+00  0.2217221E-01 -0.8462168E+02  0.0000000E+00  0.0000000E+00  0.0000000E+00  0.0000000E+00  0.0000000E+00  0.0000000E+00  0.0000000E+00
  0.9240000E+00  0.1769600E+01  0.0000000E+00  0.0000000E+00  0.0000000E+00  0.0000000E+00  0.1126915E+00  0.2035056E+02  0.0000000E+00  0.0000000E+00  0.1898847E-01 -0.1428475E+03  0.0000000E+00  0.0000000E+00  0.0000000E+00  0.0000000E+00  0.0000000E+00  0.0000000E+00  0.0000000E+00
  0.8494000E+00  0.1558400E+01  0.0000000E+00  0.0000000E+00  0.0000000E+00  0.0000000E+00  0.1399247E+00 -0.1017331E+02  0.0000000E+00  0.0000000E+00  0.8463326E-01 -0.2023965E+03  0.0000000E+00  0.0000000E+00  0.0000000E+00  0.0000000E+00  0.0000000E+00  0.0000000E+00  0.0000000E+00
  0.7763000E+00  0.1371400E+01  0.0000000E+00  0.0000000E+00  0.0000000E+00  0.0000000E+00  0.3552389E+00 -0.4636026E+02  0.0000000E+00  0.0000000E+00  0.2813329E+00 -0.1972844E+03  0.0000000E+00  0.0000000E+00  0.0000000E+00  0.0000000E+00  0.0000000E+00  0.0000000E+00  0.0000000E+00
  0.7157000E+00  0.1224000E+01  0.0000000E+00  0.0000000E+00  0.0000000E+00  0.0000000E+00  0.7170100E+00 -0.3566156E+02  0.0000000E+00  0.0000000E+00  0.5474602E+00 -0.1810247E+03  0.0000000E+00  0.0000000E+00  0.0000000E+00  0.0000000E+00  0.0000000E+00  0.0000000E+00  0.0000000E+00
  0.6703000E+00  0.1114000E+01  0.0000000E+00  0.0000000E+00  0.0000000E+00  0.0000000E+00  0.9284865E+00 -0.1938078E+02  0.0000000E+00  0.0000000E+00  0.7983232E+00 -0.1624155E+03  0.0000000E+00  0.0000000E+00  0.0000000E+00  0.0000000E+00  0.0000000E+00  0.0000000E+00  0.0000000E+00
  0.6277000E+00  0.1017200E+01  0.0000000E+00  0.0000000E+00  0.0000000E+00  0.0000000E+00  0.9694855E+00 -0.7528151E+01  0.0000000E+00  0.0000000E+00  0.9233182E+00 -0.1446882E+03  0.0000000E+00  0.0000000E+00  0.0000000E+00  0.0000000E+00  0.0000000E+00  0.0000000E+00  0.0000000E+00
  0.5844000E+00  0.9204000E+00  0.0000000E+00  0.0000000E+00  0.0000000E+00  0.0000000E+00  0.9590528E+00 -0.1693061E+01  0.0000000E+00  0.0000000E+00  0.9943101E+00 -0.1297838E+03  0.0000000E+00  0.0000000E+00  0.0000000E+00  0.0000000E+00  0.0000000E+00  0.0000000E+00  0.0000000E+00
