TITLE = "PITCH AND HEAVE TIME HISTORY DATA FOR MODEL 5512 WO BILGE KEELS"
VARIABLES = t, wave, x, y, z, roll, pitch, yaw, visibility, Uc
ZONE T="sbak3_01, Fr=0.190,  Ak=0.075", i= 1600, j=  1, k=  1, F=POINT
  0.0000000E+00 -0.3075707E+01 -0.2835379E+00  0.1795393E-01 -0.1164799E+01  0.1567201E-01  0.5255941E-01 -0.1492257E-01  0.0000000E+00  0.1031564E+01
  0.1875000E-01 -0.2160800E+01 -0.2673184E+00  0.1004590E-03 -0.1097682E+01  0.1218813E-01  0.5293109E-01 -0.1356597E-01  0.0000000E+00  0.1031991E+01
  0.3750000E-01 -0.1544694E+00 -0.2282486E+00 -0.3720803E-01 -0.9455925E+00  0.4719414E-02  0.5245940E-01 -0.1000867E-01  0.0000000E+00  0.1033126E+01
  0.5625000E-01  0.2436803E+01 -0.1700772E+00 -0.8315463E-01 -0.7392173E+00 -0.4257899E-02  0.4806843E-01 -0.4823456E-02  0.0000000E+00  0.1034898E+01
  0.7500000E-01  0.5136508E+01 -0.1076102E+00 -0.1199651E+00 -0.5244790E+00 -0.1214636E-01  0.3772648E-01  0.1205864E-02  0.0000000E+00  0.1036903E+01
  0.9375000E-01  0.7650128E+01 -0.5712377E-01 -0.1472429E+00 -0.3309852E+00 -0.1752592E-01  0.2025250E-01  0.5788147E-02  0.0000000E+00  0.1038381E+01
  0.1125000E+00  0.9816837E+01 -0.3074907E-01 -0.1700738E+00 -0.1811876E+00 -0.2038932E-01 -0.3256945E-02  0.7476357E-02  0.0000000E+00  0.1038683E+01
  0.1312500E+00  0.1154942E+02 -0.2705524E-01 -0.1981031E+00 -0.9015924E-01 -0.2133908E-01 -0.2988556E-01  0.5788147E-02  0.0000000E+00  0.1037357E+01
  0.1500000E+00  0.1278235E+02 -0.3594474E-01 -0.2243997E+00 -0.8774198E-01 -0.2094747E-01 -0.5624269E-01  0.2411728E-02  0.0000000E+00  0.1034765E+01
  0.1687500E+00  0.1346908E+02 -0.4754721E-01 -0.2424080E+00 -0.1881050E+00 -0.1966624E-01 -0.8033935E-01 -0.1205864E-02  0.0000000E+00  0.1031629E+01
  0.1875000E+00  0.1356775E+02 -0.5794382E-01 -0.2458738E+00 -0.3876297E+00 -0.1823401E-01 -0.1023116E+00 -0.3858765E-02  0.0000000E+00  0.1029127E+01
  0.2062500E+00  0.1305154E+02 -0.7135525E-01 -0.2372074E+00 -0.6489420E+00 -0.1735938E-01 -0.1222043E+00 -0.5788147E-02  0.0000000E+00  0.1027861E+01
  0.2250000E+00  0.1191728E+02 -0.9539197E-01 -0.2160321E+00 -0.9473259E+00 -0.1689203E-01 -0.1395655E+00 -0.7235184E-02  0.0000000E+00  0.1028222E+01
  0.2437500E+00  0.1021471E+02 -0.1362336E+00 -0.1828756E+00 -0.1261084E+01 -0.1552080E-01 -0.1537168E+00 -0.8923394E-02  0.0000000E+00  0.1030091E+01
  0.2625000E+00  0.8036175E+01 -0.1937287E+00 -0.1406769E+00 -0.1593231E+01 -0.1151253E-01 -0.1648395E+00 -0.1061160E-01  0.0000000E+00  0.1033136E+01
  0.2812500E+00  0.5505200E+01 -0.2628281E+00 -0.9599166E-01 -0.1924477E+01 -0.4399750E-02 -0.1731598E+00 -0.1229981E-01  0.0000000E+00  0.1036331E+01
  0.3000000E+00  0.2732300E+01 -0.3350157E+00 -0.5921851E-01 -0.2241555E+01  0.4627101E-02 -0.1784283E+00 -0.1350568E-01  0.0000000E+00  0.1038472E+01
  0.3187500E+00 -0.1771577E+00 -0.4045651E+00 -0.3495463E-01 -0.2517040E+01  0.1332266E-01 -0.1803279E+00 -0.1447037E-01  0.0000000E+00  0.1038743E+01
  0.3375000E+00 -0.3116220E+01 -0.4644691E+00 -0.2433055E-01 -0.2742793E+01  0.1978790E-01 -0.1789712E+00 -0.1447037E-01  0.0000000E+00  0.1037327E+01
  0.3562500E+00 -0.5947155E+01 -0.5154827E+00 -0.2372932E-01 -0.2907965E+01  0.2248549E-01 -0.1743362E+00 -0.1398796E-01  0.0000000E+00  0.1035006E+01
  0.3750000E+00 -0.8523138E+01 -0.5582092E+00 -0.3480741E-01 -0.3017680E+01  0.2034531E-01 -0.1650897E+00 -0.1326426E-01  0.0000000E+00  0.1032684E+01
  0.3937500E+00 -0.1071827E+02 -0.5979981E+00 -0.6261265E-01 -0.3084893E+01  0.1320167E-01 -0.1494012E+00 -0.1422858E-01  0.0000000E+00  0.1031055E+01
  0.4125000E+00 -0.1246467E+02 -0.6276142E+00 -0.1060148E+00 -0.3121058E+01  0.2832901E-02 -0.1269542E+00 -0.1615759E-01  0.0000000E+00  0.1030482E+01
  0.4312500E+00 -0.1375128E+02 -0.6362049E+00 -0.1524309E+00 -0.3123166E+01 -0.7505679E-02 -0.1002802E+00 -0.1808679E-01  0.0000000E+00  0.1031085E+01
  0.4500000E+00 -0.1459704E+02 -0.6134469E+00 -0.1802352E+00 -0.3063793E+01 -0.1489037E-01 -0.7267917E-01 -0.1712228E-01  0.0000000E+00  0.1032443E+01
  0.4687500E+00 -0.1500869E+02 -0.5672528E+00 -0.1754877E+00 -0.2929974E+01 -0.1846191E-01 -0.4614009E-01 -0.1374623E-01  0.0000000E+00  0.1034072E+01
  0.4875000E+00 -0.1496291E+02 -0.5159352E+00 -0.1406747E+00 -0.2720804E+01 -0.1919982E-01 -0.2048213E-01 -0.9405493E-02  0.0000000E+00  0.1035369E+01
  0.5062500E+00 -0.1441907E+02 -0.4718527E+00 -0.8724970E-01 -0.2470337E+01 -0.1841531E-01  0.4316943E-02 -0.6993950E-02  0.0000000E+00  0.1036304E+01
  0.5250000E+00 -0.1335663E+02 -0.4330463E+00 -0.3058457E-01 -0.2193951E+01 -0.1636494E-01  0.2807592E-01 -0.6270493E-02  0.0000000E+00  0.1036967E+01
  0.5437500E+00 -0.1180087E+02 -0.3859509E+00  0.3052592E-01 -0.1908823E+01 -0.1228043E-01  0.4964185E-01 -0.5064629E-02  0.0000000E+00  0.1037690E+01
  0.5625000E+00 -0.9823593E+01 -0.3265722E+00  0.9577993E-01 -0.1602899E+01 -0.5634382E-02  0.6854028E-01 -0.9646912E-03  0.0000000E+00  0.1038504E+01
  0.5812500E+00 -0.7522292E+01 -0.2566438E+00  0.1694728E+00 -0.1290943E+01  0.2699259E-02  0.8348296E-01  0.5546974E-02  0.0000000E+00  0.1039407E+01
  0.6000000E+00 -0.4991293E+01 -0.1902577E+00  0.2348772E+00 -0.9844136E+00  0.1061093E-01  0.9388213E-01  0.1157629E-01  0.0000000E+00  0.1040100E+01
  0.6187500E+00 -0.2305203E+01 -0.1341210E+00  0.2782796E+00 -0.7116420E+00  0.1629235E-01  0.9885583E-01  0.1471154E-01  0.0000000E+00  0.1040341E+01
  0.6375000E+00  0.4755907E+00 -0.9267870E-01  0.2903364E+00 -0.4759420E+00  0.1965321E-01  0.9840389E-01  0.1495271E-01  0.0000000E+00  0.1039739E+01
  0.6562500E+00  0.3272155E+01 -0.5568210E-01  0.2856651E+00 -0.2836395E+00  0.2179365E-01  0.9239084E-01  0.1398802E-01  0.0000000E+00  0.1038413E+01
  0.6750000E+00  0.5961370E+01 -0.1506760E-01  0.2816710E+00 -0.1359432E+00  0.2324087E-01  0.8097529E-01  0.1254105E-01  0.0000000E+00  0.1036605E+01
  0.6937500E+00  0.8384193E+01  0.3006914E-01  0.2829500E+00 -0.4732466E-01  0.2304513E-01  0.6467713E-01  0.1012950E-01  0.0000000E+00  0.1034977E+01
  0.7125000E+00  0.1039816E+02  0.6149260E-01  0.2692333E+00 -0.2290983E-01  0.1908118E-01  0.4419686E-01  0.5788765E-02  0.0000000E+00  0.1033772E+01
  0.7312500E+00  0.1192156E+02  0.5787717E-01  0.2167114E+00 -0.6902586E-01  0.1115334E-01  0.2113907E-01  0.1448024E-02  0.0000000E+00  0.1033140E+01
  0.7500000E+00  0.1293744E+02  0.1387192E-01  0.1335234E+00 -0.1829567E+00  0.9046912E-03 -0.3704907E-02 -0.4811729E-03  0.0000000E+00  0.1032869E+01
  0.7687500E+00  0.1344933E+02 -0.4761635E-01  0.5847500E-01 -0.3625913E+00 -0.7760989E-02 -0.2963398E-01  0.2171543E-02  0.0000000E+00  0.1032900E+01
  0.7875000E+00  0.1344026E+02 -0.9493919E-01  0.3308333E-01 -0.5937629E+00 -0.1288463E-01 -0.5716787E-01  0.6994629E-02  0.0000000E+00  0.1033172E+01
  0.8062500E+00  0.1287116E+02 -0.1151352E+00  0.4785309E-01 -0.8671321E+00 -0.1405969E-01 -0.8485991E-01  0.1061185E-01  0.0000000E+00  0.1033714E+01
  0.8250000E+00  0.1171282E+02 -0.1244046E+00  0.6450555E-01 -0.1180594E+01 -0.1279370E-01 -0.1108342E+00  0.1037049E-01  0.0000000E+00  0.1034527E+01
  0.8437500E+00  0.9987745E+01 -0.1488191E+00  0.4355679E-01 -0.1537167E+01 -0.1024722E-01 -0.1324458E+00  0.7235184E-02  0.0000000E+00  0.1035612E+01
  0.8625000E+00  0.7779205E+01 -0.1999080E+00 -0.9191050E-02 -0.1922680E+01 -0.7610555E-02 -0.1493783E+00  0.3376419E-02  0.0000000E+00  0.1036877E+01
  0.8812500E+00  0.5217443E+01 -0.2699858E+00 -0.6924846E-01 -0.2302166E+01 -0.6405556E-02 -0.1616992E+00  0.0000000E+00  0.0000000E+00  0.1038142E+01
  0.9000000E+00  0.2443746E+01 -0.3395371E+00 -0.1077549E+00 -0.2644874E+01 -0.7958149E-02 -0.1700412E+00 -0.3376419E-02  0.0000000E+00  0.1038986E+01
  0.9187500E+00 -0.4128326E+00 -0.3934908E+00 -0.1144620E+00 -0.2934835E+01 -0.1250944E-01 -0.1743592E+00 -0.7476357E-02  0.0000000E+00  0.1039015E+01
  0.9375000E+00 -0.3239024E+01 -0.4280031E+00 -0.9351389E-01 -0.3182297E+01 -0.1823580E-01 -0.1745627E+00 -0.1229975E-01  0.0000000E+00  0.1037869E+01
  0.9562500E+00 -0.5925502E+01 -0.4553553E+00 -0.6231759E-01 -0.3386958E+01 -0.2228901E-01 -0.1704032E+00 -0.1712296E-01  0.0000000E+00  0.1035819E+01
  0.9750000E+00 -0.8357418E+01 -0.4935568E+00 -0.4762377E-01 -0.3550323E+01 -0.2206216E-01 -0.1608408E+00 -0.2194580E-01  0.0000000E+00  0.1033437E+01
  0.9937500E+00 -0.1042624E+02 -0.5489382E+00 -0.6096173E-01 -0.3652198E+01 -0.1680209E-01 -0.1461697E+00 -0.2652716E-01  0.0000000E+00  0.1031658E+01
  0.1012500E+01 -0.1205186E+02 -0.6089172E+00 -0.9487161E-01 -0.3686853E+01 -0.7488639E-02 -0.1273392E+00 -0.3062611E-01  0.0000000E+00  0.1030874E+01
  0.1031250E+01 -0.1319520E+02 -0.6497583E+00 -0.1190611E+00 -0.3642536E+01  0.3271238E-02 -0.1077173E+00 -0.3303722E-01  0.0000000E+00  0.1031236E+01
  0.1050000E+01 -0.1385350E+02 -0.6575209E+00 -0.1210210E+00 -0.3527084E+01  0.1247883E-01 -0.8838917E-01 -0.3376055E-01  0.0000000E+00  0.1032352E+01
  0.1068750E+01 -0.1403308E+02 -0.6360475E+00 -0.1040654E+00 -0.3347435E+01  0.1719574E-01 -0.6971667E-01 -0.3303722E-01  0.0000000E+00  0.1033891E+01
  0.1087500E+01 -0.1373984E+02 -0.6020654E+00 -0.8688179E-01 -0.3128310E+01  0.1630673E-01 -0.4934889E-01 -0.3183166E-01  0.0000000E+00  0.1035249E+01
  0.1106250E+01 -0.1297261E+02 -0.5695145E+00 -0.6728549E-01 -0.2885688E+01  0.1098710E-01 -0.2809972E-01 -0.3038500E-01  0.0000000E+00  0.1036184E+01
  0.1125000E+01 -0.1174362E+02 -0.5386957E+00 -0.4429877E-01 -0.2625291E+01  0.4446601E-02 -0.7619167E-02 -0.2966166E-01  0.0000000E+00  0.1036666E+01
  0.1143750E+01 -0.1008445E+02 -0.4995870E+00 -0.2123797E-01 -0.2337768E+01  0.4592220E-04  0.8543705E-02 -0.3038500E-01  0.0000000E+00  0.1037148E+01
  0.1162500E+01 -0.8057454E+01 -0.4436744E+00 -0.1792099E-01 -0.2027328E+01 -0.6625962E-03  0.2023083E-01 -0.3231382E-01  0.0000000E+00  0.1037841E+01
  0.1181250E+01 -0.5745520E+01 -0.3741988E+00 -0.3517624E-01 -0.1714163E+01  0.1733454E-02  0.2791695E-01 -0.3327802E-01  0.0000000E+00  0.1038715E+01
  0.1200000E+01 -0.3241389E+01 -0.3026895E+00 -0.5748180E-01 -0.1414549E+01  0.4581667E-02  0.3268722E-01 -0.3110746E-01  0.0000000E+00  0.1039347E+01
  0.1218750E+01 -0.6287240E+00 -0.2427843E+00 -0.7119939E-01 -0.1131507E+01  0.4898027E-02  0.3336602E-01 -0.2628450E-01  0.0000000E+00  0.1039407E+01
  0.1237500E+01  0.2017890E+01 -0.2000586E+00 -0.8295957E-01 -0.8692642E+00  0.5574710E-03  0.2938815E-01 -0.2170278E-01  0.0000000E+00  0.1038683E+01
  0.1256250E+01  0.4622678E+01 -0.1714988E+00 -0.1122759E+00 -0.6573630E+00 -0.7701543E-02  0.2093417E-01 -0.1977364E-01  0.0000000E+00  0.1037357E+01
  0.1275000E+01  0.7088543E+01 -0.1412821E+00 -0.1513093E+00 -0.5268482E+00 -0.1657846E-01  0.8908241E-02 -0.1929136E-01  0.0000000E+00  0.1035820E+01
  0.1293750E+01  0.9293924E+01 -0.9953734E-01 -0.1794130E+00 -0.4909766E+00 -0.2220000E-01 -0.6915833E-02 -0.1760339E-01  0.0000000E+00  0.1034556E+01
  0.1312500E+01  0.1110819E+02 -0.5086049E-01 -0.1745864E+00 -0.5295494E+00 -0.2330012E-01 -0.2721593E-01 -0.1374525E-01  0.0000000E+00  0.1033863E+01
  0.1331250E+01  0.1241886E+02 -0.2200092E-01 -0.1513756E+00 -0.6223729E+00 -0.2128037E-01 -0.5106509E-01 -0.1012839E-01  0.0000000E+00  0.1033894E+01
  0.1350000E+01  0.1315412E+02 -0.3285215E-01 -0.1270370E+00 -0.7549840E+00 -0.1823555E-01 -0.7633825E-01 -0.8923085E-02  0.0000000E+00  0.1034859E+01
  0.1368750E+01  0.1328870E+02 -0.8032469E-01 -0.1075985E+00 -0.9355247E+00 -0.1415067E-01 -0.1003230E+00 -0.9888023E-02  0.0000000E+00  0.1036726E+01
  0.1387500E+01  0.1284233E+02 -0.1400793E+00 -0.8303642E-01 -0.1168818E+01 -0.8528574E-02 -0.1217081E+00 -0.1109395E-01  0.0000000E+00  0.1039227E+01
  0.1406250E+01  0.1186750E+02 -0.1943327E+00 -0.5274691E-01 -0.1470537E+01 -0.1550302E-02 -0.1389113E+00 -0.1109395E-01  0.0000000E+00  0.1041486E+01
  0.1425000E+01  0.1043408E+02 -0.2485111E+00 -0.2923735E-01 -0.1840376E+01  0.4523279E-02 -0.1511409E+00 -0.1012932E-01  0.0000000E+00  0.1042781E+01
  0.1443750E+01  0.8604817E+01 -0.3170827E+00 -0.1228148E-01 -0.2272307E+01  0.8486364E-02 -0.1584423E+00 -0.7717839E-02  0.0000000E+00  0.1042510E+01
  0.1462500E+01  0.6435364E+01 -0.4063013E+00  0.8292899E-02 -0.2720512E+01  0.1021840E-01 -0.1629181E+00 -0.3859629E-02  0.0000000E+00  0.1040883E+01
  0.1481250E+01  0.3986890E+01 -0.5053902E+00  0.4318457E-01 -0.3140682E+01  0.1107611E-01 -0.1661963E+00  0.1445432E-02  0.0000000E+00  0.1038474E+01
  0.1500000E+01  0.1356870E+01 -0.6014639E+00  0.7769846E-01 -0.3502972E+01  0.1155741E-01 -0.1680055E+00  0.6268271E-02  0.0000000E+00  0.1036395E+01
  0.1518750E+01 -0.1333543E+01 -0.6824667E+00  0.1001531E+00 -0.3821249E+01  0.1220524E-01 -0.1661074E+00  0.9644443E-02  0.0000000E+00  0.1035401E+01
  0.1537500E+01 -0.3964370E+01 -0.7437274E+00  0.1052738E+00 -0.4106672E+01  0.1307987E-01 -0.1590552E+00  0.1205617E-01  0.0000000E+00  0.1035793E+01
  0.1556250E+01 -0.6444836E+01 -0.7829105E+00  0.1050426E+00 -0.4349601E+01  0.1407537E-01 -0.1474816E+00  0.1470907E-01  0.0000000E+00  0.1036998E+01
  0.1575000E+01 -0.8699159E+01 -0.8104895E+00  0.9614691E-01 -0.4521709E+01  0.1385006E-01 -0.1326298E+00  0.1784432E-01  0.0000000E+00  0.1038353E+01
  0.1593750E+01 -0.1063972E+02 -0.8346019E+00  0.7308735E-01 -0.4609427E+01  0.1103247E-01 -0.1149067E+00  0.2001512E-01  0.0000000E+00  0.1039317E+01
  0.1612500E+01 -0.1217298E+02 -0.8606728E+00  0.3021266E-01 -0.4627519E+01  0.5245986E-02 -0.9340806E-01  0.2073926E-01  0.0000000E+00  0.1039950E+01
  0.1631250E+01 -0.1321726E+02 -0.8765713E+00 -0.1801111E-01 -0.4596173E+01 -0.2153027E-02 -0.6874444E-01  0.2025765E-01  0.0000000E+00  0.1040281E+01
  0.1650000E+01 -0.1373031E+02 -0.8720500E+00 -0.5221975E-01 -0.4527147E+01 -0.9130311E-02 -0.4215945E-01  0.1977580E-01  0.0000000E+00  0.1040371E+01
  0.1668750E+01 -0.1368886E+02 -0.8399503E+00 -0.5515833E-01 -0.4409594E+01 -0.1398315E-01 -0.1573278E-01  0.1977580E-01  0.0000000E+00  0.1040040E+01
  0.1687500E+01 -0.1309490E+02 -0.7911220E+00 -0.2893611E-01 -0.4242611E+01 -0.1577704E-01  0.1026426E-01  0.2001648E-01  0.0000000E+00  0.1039407E+01
  0.1706250E+01 -0.1197683E+02 -0.7370932E+00  0.1574784E-01 -0.4031625E+01 -0.1421019E-01  0.3488222E-01  0.2001568E-01  0.0000000E+00  0.1038624E+01
  0.1725000E+01 -0.1041399E+02 -0.6850988E+00  0.6020679E-01 -0.3795021E+01 -0.9719322E-02  0.5728463E-01  0.1832673E-01  0.0000000E+00  0.1037931E+01
  0.1743750E+01 -0.8505817E+01 -0.6237621E+00  0.1031596E+00 -0.3531898E+01 -0.3540370E-02  0.7532389E-01  0.1519111E-01  0.0000000E+00  0.1037329E+01
  0.1762500E+01 -0.6348998E+01 -0.5489395E+00  0.1354130E+00 -0.3244963E+01  0.1990557E-02  0.8820898E-01  0.1060901E-01  0.0000000E+00  0.1036787E+01
  0.1781250E+01 -0.4012985E+01 -0.4675623E+00  0.1532741E+00 -0.2938432E+01  0.4703150E-02  0.9566861E-01  0.6750802E-02  0.0000000E+00  0.1036275E+01
  0.1800000E+01 -0.1568818E+01 -0.4052478E+00  0.1406164E+00 -0.2634907E+01  0.3211051E-02  0.9856176E-01  0.3616296E-02  0.0000000E+00  0.1035823E+01
  0.1818750E+01  0.9041618E+00 -0.3679469E+00  0.1112278E+00 -0.2345247E+01 -0.1219875E-02  0.9697880E-01  0.1687531E-02  0.0000000E+00  0.1035552E+01
  0.1837500E+01  0.3318728E+01 -0.3488034E+00  0.8228888E-01 -0.2084831E+01 -0.6163270E-02  0.9092009E-01 -0.4825925E-03  0.0000000E+00  0.1035552E+01
  0.1856250E+01  0.5608964E+01 -0.3270985E+00  0.7173549E-01 -0.1863006E+01 -0.8710493E-02  0.8006945E-01 -0.3376481E-02  0.0000000E+00  0.1035913E+01
  0.1875000E+01  0.7733040E+01 -0.3006500E+00  0.6977408E-01 -0.1699959E+01 -0.8062592E-02  0.6435889E-01 -0.7476357E-02  0.0000000E+00  0.1036485E+01
  0.1893750E+01  0.9651890E+01 -0.2737534E+00  0.6389630E-01 -0.1594779E+01 -0.4837345E-02  0.4347139E-01 -0.1181747E-01  0.0000000E+00  0.1037088E+01
  0.1912500E+01  0.1129961E+02 -0.2582361E+00  0.5063488E-01 -0.1544448E+01 -0.6324074E-03  0.1767787E-01 -0.1471154E-01  0.0000000E+00  0.1037540E+01
  0.1931250E+01  0.1256175E+02 -0.2587664E+00  0.3398240E-01 -0.1538120E+01  0.3361480E-02 -0.1128065E-01 -0.1495265E-01  0.0000000E+00  0.1037811E+01
  0.1950000E+01  0.1330057E+02 -0.2761719E+00  0.1770679E-01 -0.1586944E+01  0.6450924E-02 -0.4057796E-01 -0.1302308E-01  0.0000000E+00  0.1037811E+01
  0.1968750E+01  0.1339292E+02 -0.3055568E+00 -0.5275004E-02 -0.1700568E+01  0.7822283E-02 -0.6752361E-01 -0.1109333E-01  0.0000000E+00  0.1037389E+01
  0.1987500E+01  0.1279540E+02 -0.3405941E+00 -0.3413396E-01 -0.1892554E+01  0.7068641E-02 -0.9058093E-01 -0.1061062E-01  0.0000000E+00  0.1036516E+01
  0.2006250E+01  0.1155180E+02 -0.3797778E+00 -0.6457562E-01 -0.2167132E+01  0.4009137E-02 -0.1089816E+00 -0.1109278E-01  0.0000000E+00  0.1035371E+01
  0.2025000E+01  0.9768311E+01 -0.4252923E+00 -0.8409137E-01 -0.2517974E+01 -0.4520977E-03 -0.1230198E+00 -0.1036938E-01  0.0000000E+00  0.1034317E+01
  0.2043750E+01  0.7550697E+01 -0.4812809E+00 -0.9388704E-01 -0.2913731E+01 -0.5968271E-02 -0.1342097E+00 -0.8198950E-02  0.0000000E+00  0.1033503E+01
  0.2062500E+01  0.4988544E+01 -0.5456334E+00 -0.1017238E+00 -0.3295920E+01 -0.1213216E-01 -0.1441563E+00 -0.6028209E-02  0.0000000E+00  0.1032930E+01
  0.2081250E+01  0.2188400E+01 -0.6136775E+00 -0.1149111E+00 -0.3619928E+01 -0.1814488E-01 -0.1531532E+00 -0.6027654E-02  0.0000000E+00  0.1032447E+01
  0.2100000E+01 -0.6981850E+00 -0.6771247E+00 -0.1242559E+00 -0.3877922E+01 -0.2124870E-01 -0.1593925E+00 -0.7233025E-02  0.0000000E+00  0.1032144E+01
  0.2118750E+01 -0.3479006E+01 -0.7320562E+00 -0.1175503E+00 -0.4097336E+01 -0.1846018E-01 -0.1612010E+00 -0.7715370E-02  0.0000000E+00  0.1032234E+01
  0.2137500E+01 -0.5993814E+01 -0.7780951E+00 -0.9614938E-01 -0.4291737E+01 -0.9252158E-02 -0.1581265E+00 -0.6268827E-02  0.0000000E+00  0.1032896E+01
  0.2156250E+01 -0.8150646E+01 -0.8194605E+00 -0.7670555E-01 -0.4445453E+01  0.2728397E-02 -0.1513441E+00 -0.4098827E-02  0.0000000E+00  0.1033922E+01
  0.2175000E+01 -0.9936876E+01 -0.8555509E+00 -0.7451636E-01 -0.4530149E+01  0.1152907E-01 -0.1414871E+00 -0.2651975E-02  0.0000000E+00  0.1034857E+01
  0.2193750E+01 -0.1136357E+02 -0.8773253E+00 -0.8340524E-01 -0.4539495E+01  0.1285519E-01 -0.1280588E+00 -0.1687160E-02  0.0000000E+00  0.1035340E+01
  0.2212500E+01 -0.1242639E+02 -0.8737836E+00 -0.9229660E-01 -0.4489768E+01  0.6586173E-02 -0.1102455E+00 -0.7223457E-03  0.0000000E+00  0.1035341E+01
  0.2231250E+01 -0.1308430E+02 -0.8421367E+00 -0.9290092E-01 -0.4398149E+01 -0.3570864E-02 -0.8861231E-01  0.7245060E-03  0.0000000E+00  0.1034979E+01
  0.2250000E+01 -0.1327808E+02 -0.7918778E+00 -0.9553982E-01 -0.4260118E+01 -0.1288420E-01 -0.6512528E-01  0.1206481E-02  0.0000000E+00  0.1034285E+01
  0.2268750E+01 -0.1296670E+02 -0.7370210E+00 -0.1043565E+00 -0.4063912E+01 -0.1769179E-01 -0.4166055E-01  0.4825925E-03  0.0000000E+00  0.1033289E+01
  0.2287500E+01 -0.1215764E+02 -0.6863077E+00 -0.1221395E+00 -0.3806519E+01 -0.1672765E-01 -0.1943889E-01 -0.1688148E-02  0.0000000E+00  0.1032141E+01
  0.2306250E+01 -0.1092155E+02 -0.6410947E+00 -0.1425599E+00 -0.3497579E+01 -0.1112179E-01  0.4315746E-03 -0.3858765E-02  0.0000000E+00  0.1031175E+01
  0.2325000E+01 -0.9355925E+01 -0.5943753E+00 -0.1659201E+00 -0.3144329E+01 -0.4114197E-02  0.1682056E-01 -0.5788147E-02  0.0000000E+00  0.1030572E+01
  0.2343750E+01 -0.7555081E+01 -0.5416287E+00 -0.1852123E+00 -0.2754603E+01  0.7535810E-03  0.2932120E-01 -0.7235184E-02  0.0000000E+00  0.1030360E+01
  0.2362500E+01 -0.5569927E+01 -0.4808966E+00 -0.1929765E+00 -0.2354928E+01  0.1341482E-02  0.3904158E-01 -0.8682221E-02  0.0000000E+00  0.1030421E+01
  0.2381250E+01 -0.3438349E+01 -0.4148161E+00 -0.1785111E+00 -0.1975451E+01 -0.2064320E-02  0.4679537E-01 -0.9646851E-02  0.0000000E+00  0.1030692E+01
  0.2400000E+01 -0.1193098E+01 -0.3439889E+00 -0.1458086E+00 -0.1634258E+01 -0.7821233E-02  0.5244676E-01 -0.9887776E-02  0.0000000E+00  0.1031083E+01
  0.2418750E+01  0.1102280E+01 -0.2696941E+00 -0.1079799E+00 -0.1316579E+01 -0.1375926E-01  0.5414204E-01 -0.9887160E-02  0.0000000E+00  0.1031476E+01
  0.2437500E+01  0.3374770E+01 -0.1976577E+00 -0.7896604E-01 -0.1023312E+01 -0.1781358E-01  0.5118065E-01 -0.1060975E-01  0.0000000E+00  0.1031808E+01
  0.2456250E+01  0.5533988E+01 -0.1342099E+00 -0.6230925E-01 -0.7671111E+00 -0.1817555E-01  0.4335945E-01 -0.1205586E-01  0.0000000E+00  0.1032111E+01
  0.2475000E+01  0.7491928E+01 -0.8312006E-01 -0.4806450E-01 -0.5787209E+00 -0.1407642E-01  0.3151454E-01 -0.1253784E-01  0.0000000E+00  0.1032535E+01
  0.2493750E+01  0.9152684E+01 -0.4318395E-01 -0.3585586E-01 -0.4560345E+00 -0.7098765E-02  0.1521602E-01 -0.1085000E-01  0.0000000E+00  0.1033019E+01
  0.2512500E+01  0.1042035E+02 -0.1560679E-01 -0.2628703E-01 -0.3957395E+00 -0.5130857E-03 -0.4993981E-02 -0.7233333E-02  0.0000000E+00  0.1033472E+01
  0.2531250E+01  0.1118680E+02 -0.5510809E-02 -0.3050926E-01 -0.3945197E+00  0.2093828E-02 -0.2769102E-01 -0.3857839E-02  0.0000000E+00  0.1033623E+01
  0.2550000E+01  0.1135137E+02 -0.1756606E-01 -0.3736914E-01 -0.4728753E+00 -0.4080251E-03 -0.5059157E-01 -0.2411358E-02  0.0000000E+00  0.1033471E+01
  0.2568750E+01  0.1085842E+02 -0.5267624E-01 -0.4452902E-01 -0.6311123E+00 -0.6752594E-02 -0.7288148E-01 -0.3858395E-02  0.0000000E+00  0.1032987E+01
  0.2587500E+01  0.9742700E+01 -0.1043627E+00 -0.4452871E-01 -0.8532580E+00 -0.1382037E-01 -0.9503564E-01 -0.7234321E-02  0.0000000E+00  0.1032413E+01
  0.2606250E+01  0.8119834E+01 -0.1672022E+00 -0.5145957E-01 -0.1111880E+01 -0.1859753E-01 -0.1163759E+00 -0.1085117E-01  0.0000000E+00  0.1031899E+01
  0.2625000E+01  0.6122044E+01 -0.2344148E+00 -0.6057623E-01 -0.1399137E+01 -0.1874815E-01 -0.1347547E+00 -0.1229765E-01  0.0000000E+00  0.1031777E+01
  0.2643750E+01  0.3836548E+01 -0.3044929E+00 -0.6969475E-01 -0.1716232E+01 -0.1391037E-01 -0.1471424E+00 -0.1085062E-01  0.0000000E+00  0.1032290E+01
  0.2662500E+01  0.1316228E+01 -0.3720095E+00 -0.6879351E-01 -0.2054122E+01 -0.5651357E-02 -0.1532450E+00 -0.7233580E-02  0.0000000E+00  0.1033527E+01
  0.2681250E+01 -0.1368278E+01 -0.4344768E+00 -0.6834505E-01 -0.2399242E+01  0.2713335E-02 -0.1543060E+00 -0.3375555E-02  0.0000000E+00  0.1035247E+01
  0.2700000E+01 -0.4080418E+01 -0.4851889E+00 -0.7369784E-01 -0.2728383E+01  0.7852843E-02 -0.1529709E+00 -0.2408642E-03  0.0000000E+00  0.1036755E+01
  0.2718750E+01 -0.6656805E+01 -0.5239201E+00 -0.8364537E-01 -0.3034615E+01  0.7280376E-02 -0.1498732E+00  0.2170617E-02  0.0000000E+00  0.1037418E+01
  0.2737500E+01 -0.8951798E+01 -0.5514994E+00 -0.8372006E-01 -0.3292625E+01  0.4382163E-03 -0.1450806E+00  0.3858765E-02  0.0000000E+00  0.1036694E+01
  0.2756250E+01 -0.1088804E+02 -0.5786259E+00 -0.6781882E-01 -0.3498794E+01 -0.1063888E-01 -0.1373951E+00  0.4582284E-02  0.0000000E+00  0.1034855E+01
  0.2775000E+01 -0.1242882E+02 -0.6100469E+00 -0.3647006E-01 -0.3645584E+01 -0.2111314E-01 -0.1265675E+00  0.4099938E-02  0.0000000E+00  0.1032503E+01
  0.2793750E+01 -0.1356387E+02 -0.6476463E+00  0.3543213E-02 -0.3757105E+01 -0.2530278E-01 -0.1121456E+00  0.3376419E-02  0.0000000E+00  0.1030603E+01
  0.2812500E+01 -0.1428177E+02 -0.6792179E+00  0.4973333E-01 -0.3833359E+01 -0.1953068E-01 -0.9507880E-01  0.3376419E-02  0.0000000E+00  0.1029698E+01
  0.2831250E+01 -0.1458290E+02 -0.7003164E+00  0.8861265E-01 -0.3868319E+01 -0.5032715E-02 -0.7676880E-01  0.4099938E-02  0.0000000E+00  0.1030000E+01
  0.2850000E+01 -0.1446608E+02 -0.7107161E+00  0.9863210E-01 -0.3836965E+01  0.1321778E-01 -0.5913704E-01  0.4823456E-02  0.0000000E+00  0.1031417E+01
  0.2868750E+01 -0.1393209E+02 -0.7219453E+00  0.6344166E-01 -0.3738696E+01  0.2839395E-01 -0.4283880E-01  0.5064629E-02  0.0000000E+00  0.1033497E+01
  0.2887500E+01 -0.1298134E+02 -0.7315164E+00 -0.2038583E-02 -0.3584667E+01  0.3585408E-01 -0.2807741E-01  0.6029320E-02  0.0000000E+00  0.1035608E+01
  0.2906250E+01 -0.1164420E+02 -0.7253370E+00 -0.5282438E-01 -0.3384223E+01  0.3351821E-01 -0.1525963E-01  0.8199875E-02  0.0000000E+00  0.1036935E+01
  0.2925000E+01 -0.9983438E+01 -0.6853985E+00 -0.5907685E-01 -0.3137669E+01  0.2223018E-01 -0.5312500E-02  0.1085278E-01  0.0000000E+00  0.1037298E+01
  0.2943750E+01 -0.8079173E+01 -0.6157713E+00 -0.3217469E-01 -0.2849524E+01  0.4853457E-02  0.1447222E-02  0.1109395E-01  0.0000000E+00  0.1036907E+01
  0.2962500E+01 -0.5984294E+01 -0.5392129E+00 -0.1559599E-01 -0.2552033E+01 -0.1345753E-01  0.5403426E-02  0.7476357E-02  0.0000000E+00  0.1036335E+01
  0.2981250E+01 -0.3715379E+01 -0.4757673E+00 -0.3413210E-01 -0.2272022E+01 -0.2629771E-01  0.6668982E-02  0.7235184E-03  0.0000000E+00  0.1035823E+01
  0.3000000E+01 -0.1274393E+01 -0.4263377E+00 -0.7972038E-01 -0.2024258E+01 -0.2881438E-01  0.4588518E-02 -0.6270431E-02  0.0000000E+00  0.1035461E+01
  0.3018750E+01  0.1296043E+01 -0.3830873E+00 -0.1391741E+00 -0.1800907E+01 -0.2081185E-01 -0.1425278E-02 -0.1181716E-01  0.0000000E+00  0.1035160E+01
  0.3037500E+01  0.3884243E+01 -0.3434540E+00 -0.2032997E+00 -0.1608906E+01 -0.7218271E-02 -0.1132676E-01 -0.1567537E-01  0.0000000E+00  0.1034889E+01
  0.3056250E+01  0.6313003E+01 -0.3118074E+00 -0.2721722E+00 -0.1465136E+01  0.4159690E-02 -0.2450556E-01 -0.1832747E-01  0.0000000E+00  0.1034678E+01
  0.3075000E+01  0.8399985E+01 -0.2860371E+00 -0.3223574E+00 -0.1380143E+01  0.6600739E-02 -0.4152704E-01 -0.1929142E-01  0.0000000E+00  0.1034558E+01
  0.3093750E+01  0.1000430E+02 -0.2626765E+00 -0.3473753E+00 -0.1350307E+01 -0.2532287E-02 -0.6273065E-01 -0.1856753E-01  0.0000000E+00  0.1034558E+01
  0.3112500E+01  0.1105569E+02 -0.2435358E+00 -0.3459451E+00 -0.1359651E+01 -0.1995383E-01 -0.8825204E-01 -0.1736179E-01  0.0000000E+00  0.1034618E+01
  0.3131250E+01  0.1151509E+02 -0.2403704E+00 -0.3408222E+00 -0.1419330E+01 -0.3782735E-01 -0.1148812E+00 -0.1760333E-01  0.0000000E+00  0.1034889E+01
  0.3150000E+01  0.1135921E+02 -0.2642577E+00 -0.3342664E+00 -0.1544419E+01 -0.4717099E-01 -0.1398602E+00 -0.1953308E-01  0.0000000E+00  0.1035612E+01
  0.3168750E+01  0.1057264E+02 -0.3121831E+00 -0.3231877E+00 -0.1755415E+01 -0.4304173E-01 -0.1604765E+00 -0.2146271E-01  0.0000000E+00  0.1036967E+01
  0.3187500E+01  0.9190533E+01 -0.3711099E+00 -0.3010309E+00 -0.2025784E+01 -0.2684111E-01 -0.1780185E+00 -0.2146296E-01  0.0000000E+00  0.1038654E+01
  0.3206250E+01  0.7299308E+01 -0.4202405E+00 -0.2690781E+00 -0.2316940E+01 -0.6013948E-02 -0.1930966E+00 -0.1953395E-01  0.0000000E+00  0.1040010E+01
  0.3225000E+01  0.5027231E+01 -0.4527926E+00 -0.2329065E+00 -0.2584572E+01  0.1044266E-01 -0.2069085E+00 -0.1712265E-01  0.0000000E+00  0.1040462E+01
  0.3243750E+01  0.2503353E+01 -0.4695954E+00 -0.1852836E+00 -0.2818444E+01  0.1644031E-01 -0.2185729E+00 -0.1567599E-01  0.0000000E+00  0.1039829E+01
  0.3262500E+01 -0.1511678E+00 -0.4823287E+00 -0.1269633E+00 -0.3016157E+01  0.1172290E-01 -0.2281802E+00 -0.1495259E-01  0.0000000E+00  0.1038443E+01
  0.3281250E+01 -0.2836477E+01 -0.4941577E+00 -0.6314351E-01 -0.3179826E+01  0.9171630E-03 -0.2347587E+00 -0.1471123E-01  0.0000000E+00  0.1036726E+01
  0.3300000E+01 -0.5461799E+01 -0.5095284E+00 -0.2464074E-01 -0.3315173E+01 -0.9722652E-02 -0.2364999E+00 -0.1471062E-01  0.0000000E+00  0.1035220E+01
  0.3318750E+01 -0.7946613E+01 -0.5282901E+00 -0.2531883E-01 -0.3433944E+01 -0.1522327E-01 -0.2312335E+00 -0.1567432E-01  0.0000000E+00  0.1034226E+01
  0.3337500E+01 -0.1019462E+02 -0.5524784E+00 -0.5786914E-01 -0.3547285E+01 -0.1335420E-01 -0.2182131E+00 -0.1712025E-01  0.0000000E+00  0.1034015E+01
  0.3356250E+01 -0.1210320E+02 -0.5766683E+00 -0.8182963E-01 -0.3639221E+01 -0.4823767E-02 -0.1996763E+00 -0.1832537E-01  0.0000000E+00  0.1034437E+01
  0.3375000E+01 -0.1357331E+02 -0.5971670E+00 -0.7165648E-01 -0.3692273E+01  0.7414071E-02 -0.1777482E+00 -0.1808420E-01  0.0000000E+00  0.1035311E+01
  0.3393750E+01 -0.1455010E+02 -0.6090000E+00 -0.3104259E-01 -0.3678715E+01  0.1885284E-01 -0.1548483E+00 -0.1591438E-01  0.0000000E+00  0.1036245E+01
  0.3412500E+01 -0.1502409E+02 -0.6087003E+00  0.1386481E-01 -0.3595231E+01  0.2578493E-01 -0.1318811E+00 -0.1205673E-01  0.0000000E+00  0.1037178E+01
  0.3431250E+01 -0.1502055E+02 -0.5864722E+00  0.4309753E-01 -0.3422832E+01  0.2616086E-01 -0.1109262E+00 -0.7475432E-02  0.0000000E+00  0.1037992E+01
  0.3450000E+01 -0.1456510E+02 -0.5390760E+00  0.5582870E-01 -0.3172971E+01  0.2067438E-01 -0.9187000E-01 -0.3376111E-02  0.0000000E+00  0.1038835E+01
  0.3468750E+01 -0.1366803E+02 -0.4707312E+00  0.5401975E-01 -0.2853182E+01  0.1111932E-01 -0.7389852E-01 -0.2411111E-03  0.0000000E+00  0.1039618E+01
  0.3487500E+01 -0.1232537E+02 -0.3984676E+00  0.4060988E-01 -0.2508374E+01 -0.4777760E-04 -0.5484167E-01  0.1929382E-02  0.0000000E+00  0.1040432E+01
  0.3506250E+01 -0.1054346E+02 -0.3325337E+00  0.1778179E-01 -0.2156632E+01 -0.1014463E-01 -0.3521972E-01  0.2894074E-02  0.0000000E+00  0.1041034E+01
  0.3525000E+01 -0.8365712E+01 -0.2782046E+00 -0.5500615E-02 -0.1816341E+01 -0.1615734E-01 -0.1659250E-01  0.1929382E-02  0.0000000E+00  0.1041245E+01
  0.3543750E+01 -0.5880129E+01 -0.2309596E+00 -0.2275802E-01 -0.1478758E+01 -0.1579525E-01 -0.8138891E-03 -0.9646912E-03  0.0000000E+00  0.1040642E+01
  0.3562500E+01 -0.3202738E+01 -0.1904966E+00 -0.3346080E-01 -0.1155941E+01 -0.9359751E-02  0.1182231E-01 -0.4823456E-02  0.0000000E+00  0.1039227E+01
  0.3581250E+01 -0.4483775E+00 -0.1562873E+00 -0.4114783E-01 -0.8590395E+00  0.2404348E-03  0.2124833E-01 -0.8199814E-02  0.0000000E+00  0.1037329E+01
  0.3600000E+01  0.2279151E+01 -0.1299886E+00 -0.5154413E-01 -0.6001161E+00  0.8619756E-02  0.2644731E-01 -0.1109370E-01  0.0000000E+00  0.1035762E+01
  0.3618750E+01  0.4887096E+01 -0.1103941E+00 -0.6992530E-01 -0.3773655E+00  0.1262852E-01  0.2637944E-01 -0.1350506E-01  0.0000000E+00  0.1035280E+01
  0.3637500E+01  0.7279153E+01 -0.9433982E-01 -0.1029241E+00 -0.1865741E+00  0.1082000E-01  0.2029861E-01 -0.1519284E-01  0.0000000E+00  0.1036305E+01