TITLE = "PITCH AND HEAVE HARMONIC ANALYSIS DATA FOR MODEL 5512 WO BILGE KEELS"
VARIABLES = f, fe, lambda, Ak, wave, x, y, z, roll, pitch, yaw, visibility, Uc
ZONE T="Amp 0, Fr=0.280,  Ak=0.075", i=      5, j=  1, k=  1, F=POINT
  0.1012200E+01  0.2018200E+01  0.5000802E+00  0.6650046E-01 -0.1286515E+01  0.0000000E+00  0.0000000E+00 -0.1112105E+02  0.0000000E+00 -0.2048706E+00  0.0000000E+00  0.0000000E+00  0.1533390E+01
  0.9240000E+00  0.1760800E+01  0.5998119E+00  0.6958390E-01 -0.2338034E+01  0.0000000E+00  0.0000000E+00 -0.1156272E+02  0.0000000E+00 -0.1980713E+00  0.0000000E+00  0.0000000E+00  0.1529860E+01
  0.8494000E+00  0.1554000E+01  0.7102371E+00  0.7145875E-01 -0.1409079E+01  0.0000000E+00  0.0000000E+00 -0.1073269E+02  0.0000000E+00 -0.1580344E+00  0.0000000E+00  0.0000000E+00  0.1525320E+01
  0.7763000E+00  0.1364800E+01  0.8502030E+00  0.7418320E-01 -0.7259090E+00  0.0000000E+00  0.0000000E+00 -0.9463523E+01  0.0000000E+00 -0.5484361E-01  0.0000000E+00  0.0000000E+00  0.1525050E+01
  0.7157000E+00  0.1217400E+01  0.9969124E+00  0.7604297E-01  0.1536337E+01  0.0000000E+00  0.0000000E+00 -0.4710709E+01  0.0000000E+00  0.2412375E+00  0.0000000E+00  0.0000000E+00  0.1524460E+01
ZONE T="Amp 1, Fr=0.280,  Ak=0.075", i=      5, j=  1, k=  1, F=POINT
  0.1012200E+01  0.2018200E+01  0.5000802E+00  0.6650046E-01  0.1613242E+02  0.0000000E+00  0.0000000E+00  0.1144439E+01  0.0000000E+00  0.8258262E-01  0.0000000E+00  0.0000000E+00  0.1533390E+01
  0.9240000E+00  0.1760800E+01  0.5998119E+00  0.6958390E-01  0.2024692E+02  0.0000000E+00  0.0000000E+00  0.2324680E+01  0.0000000E+00  0.7283592E-01  0.0000000E+00  0.0000000E+00  0.1529860E+01
  0.8494000E+00  0.1554000E+01  0.7102371E+00  0.7145875E-01  0.2462033E+02  0.0000000E+00  0.0000000E+00  0.3566541E+01  0.0000000E+00  0.3636376E+00  0.0000000E+00  0.0000000E+00  0.1525320E+01
  0.7763000E+00  0.1364800E+01  0.8502030E+00  0.7418320E-01  0.3059591E+02  0.0000000E+00  0.0000000E+00  0.1113356E+02  0.0000000E+00  0.1199171E+01  0.0000000E+00  0.0000000E+00  0.1525050E+01
  0.7157000E+00  0.1217400E+01  0.9969124E+00  0.7604297E-01  0.3677487E+02  0.0000000E+00  0.0000000E+00  0.2749419E+02  0.0000000E+00  0.2379790E+01  0.0000000E+00  0.0000000E+00  0.1524460E+01
ZONE T="Amp 2, Fr=0.280,  Ak=0.075", i=      5, j=  1, k=  1, F=POINT
  0.1012200E+01  0.2018200E+01  0.5000802E+00  0.6650046E-01  0.6652288E+00  0.0000000E+00  0.0000000E+00  0.2030750E-01  0.0000000E+00  0.1265162E-02  0.0000000E+00  0.0000000E+00  0.1533390E+01
  0.9240000E+00  0.1760800E+01  0.5998119E+00  0.6958390E-01  0.7854689E+00  0.0000000E+00  0.0000000E+00  0.5687917E-01  0.0000000E+00  0.1352341E-02  0.0000000E+00  0.0000000E+00  0.1529860E+01
  0.8494000E+00  0.1554000E+01  0.7102371E+00  0.7145875E-01  0.8896189E+00  0.0000000E+00  0.0000000E+00  0.1189048E+00  0.0000000E+00  0.8925721E-02  0.0000000E+00  0.0000000E+00  0.1525320E+01
  0.7763000E+00  0.1364800E+01  0.8502030E+00  0.7418320E-01  0.8084976E+00  0.0000000E+00  0.0000000E+00  0.2987156E+00  0.0000000E+00  0.2359666E-01  0.0000000E+00  0.0000000E+00  0.1525050E+01
  0.7157000E+00  0.1217400E+01  0.9969124E+00  0.7604297E-01  0.1334039E+01  0.0000000E+00  0.0000000E+00  0.7015331E+00  0.0000000E+00  0.3554802E-01  0.0000000E+00  0.0000000E+00  0.1524460E+01
ZONE T="Amp 3, Fr=0.280,  Ak=0.075", i=      5, j=  1, k=  1, F=POINT
  0.1012200E+01  0.2018200E+01  0.5000802E+00  0.6650046E-01  0.7570310E-01  0.0000000E+00  0.0000000E+00  0.5033542E-02  0.0000000E+00  0.5287105E-03  0.0000000E+00  0.0000000E+00  0.1533390E+01
  0.9240000E+00  0.1760800E+01  0.5998119E+00  0.6958390E-01  0.3484930E-01  0.0000000E+00  0.0000000E+00  0.2137201E-01  0.0000000E+00  0.1530214E-02  0.0000000E+00  0.0000000E+00  0.1529860E+01
  0.8494000E+00  0.1554000E+01  0.7102371E+00  0.7145875E-01  0.2053823E+00  0.0000000E+00  0.0000000E+00  0.1514312E-01  0.0000000E+00  0.9583458E-03  0.0000000E+00  0.0000000E+00  0.1525320E+01
  0.7763000E+00  0.1364800E+01  0.8502030E+00  0.7418320E-01  0.6026863E+00  0.0000000E+00  0.0000000E+00  0.2341352E-01  0.0000000E+00  0.1667561E-02  0.0000000E+00  0.0000000E+00  0.1525050E+01
  0.7157000E+00  0.1217400E+01  0.9969124E+00  0.7604297E-01  0.1187241E+01  0.0000000E+00  0.0000000E+00  0.1435476E+00  0.0000000E+00  0.2142530E-01  0.0000000E+00  0.0000000E+00  0.1524460E+01
ZONE T="Amp 4, Fr=0.280,  Ak=0.075", i=      5, j=  1, k=  1, F=POINT
  0.1012200E+01  0.2018200E+01  0.5000802E+00  0.6650046E-01  0.1322489E-01  0.0000000E+00  0.0000000E+00  0.8646318E-02  0.0000000E+00  0.3570182E-03  0.0000000E+00  0.0000000E+00  0.1533390E+01
  0.9240000E+00  0.1760800E+01  0.5998119E+00  0.6958390E-01  0.4699174E-01  0.0000000E+00  0.0000000E+00  0.1570288E-01  0.0000000E+00  0.1623649E-03  0.0000000E+00  0.0000000E+00  0.1529860E+01
  0.8494000E+00  0.1554000E+01  0.7102371E+00  0.7145875E-01  0.9937496E-01  0.0000000E+00  0.0000000E+00  0.1321166E-01  0.0000000E+00  0.2040591E-03  0.0000000E+00  0.0000000E+00  0.1525320E+01
  0.7763000E+00  0.1364800E+01  0.8502030E+00  0.7418320E-01  0.2341610E+00  0.0000000E+00  0.0000000E+00  0.6344524E-01  0.0000000E+00  0.5193600E-03  0.0000000E+00  0.0000000E+00  0.1525050E+01
  0.7157000E+00  0.1217400E+01  0.9969124E+00  0.7604297E-01  0.4347952E+00  0.0000000E+00  0.0000000E+00  0.6526667E-01  0.0000000E+00  0.3055518E-02  0.0000000E+00  0.0000000E+00  0.1524460E+01
ZONE T="Amp 5, Fr=0.280,  Ak=0.075", i=      5, j=  1, k=  1, F=POINT
  0.1012200E+01  0.2018200E+01  0.5000802E+00  0.6650046E-01  0.1023913E-01  0.0000000E+00  0.0000000E+00  0.1125736E-01  0.0000000E+00  0.4214162E-03  0.0000000E+00  0.0000000E+00  0.1533390E+01
  0.9240000E+00  0.1760800E+01  0.5998119E+00  0.6958390E-01  0.6288666E-01  0.0000000E+00  0.0000000E+00  0.1469979E-01  0.0000000E+00  0.8847372E-04  0.0000000E+00  0.0000000E+00  0.1529860E+01
  0.8494000E+00  0.1554000E+01  0.7102371E+00  0.7145875E-01  0.2678793E-01  0.0000000E+00  0.0000000E+00  0.1848199E-01  0.0000000E+00  0.5414395E-03  0.0000000E+00  0.0000000E+00  0.1525320E+01
  0.7763000E+00  0.1364800E+01  0.8502030E+00  0.7418320E-01  0.6698577E-01  0.0000000E+00  0.0000000E+00  0.2706994E-01  0.0000000E+00  0.9843202E-03  0.0000000E+00  0.0000000E+00  0.1525050E+01
  0.7157000E+00  0.1217400E+01  0.9969124E+00  0.7604297E-01  0.1878778E+00  0.0000000E+00  0.0000000E+00  0.4301786E-01  0.0000000E+00  0.8042429E-02  0.0000000E+00  0.0000000E+00  0.1524460E+01
ZONE T="Amp 6, Fr=0.280,  Ak=0.075", i=      5, j=  1, k=  1, F=POINT
  0.1012200E+01  0.2018200E+01  0.5000802E+00  0.6650046E-01  0.1413069E-01  0.0000000E+00  0.0000000E+00  0.8324379E-02  0.0000000E+00  0.2768353E-03  0.0000000E+00  0.0000000E+00  0.1533390E+01
  0.9240000E+00  0.1760800E+01  0.5998119E+00  0.6958390E-01  0.3252516E-01  0.0000000E+00  0.0000000E+00  0.1196239E-01  0.0000000E+00  0.2064155E-03  0.0000000E+00  0.0000000E+00  0.1529860E+01
  0.8494000E+00  0.1554000E+01  0.7102371E+00  0.7145875E-01  0.3169920E-01  0.0000000E+00  0.0000000E+00  0.1346400E-01  0.0000000E+00  0.4515098E-03  0.0000000E+00  0.0000000E+00  0.1525320E+01
  0.7763000E+00  0.1364800E+01  0.8502030E+00  0.7418320E-01  0.4466967E-01  0.0000000E+00  0.0000000E+00  0.3104056E-01  0.0000000E+00  0.1117461E-02  0.0000000E+00  0.0000000E+00  0.1525050E+01
  0.7157000E+00  0.1217400E+01  0.9969124E+00  0.7604297E-01  0.2076099E+00  0.0000000E+00  0.0000000E+00  0.3044765E-01  0.0000000E+00  0.8972529E-03  0.0000000E+00  0.0000000E+00  0.1524460E+01
ZONE T="Amp 7, Fr=0.280,  Ak=0.075", i=      5, j=  1, k=  1, F=POINT
  0.1012200E+01  0.2018200E+01  0.5000802E+00  0.6650046E-01  0.1028126E-01  0.0000000E+00  0.0000000E+00  0.5922922E-02  0.0000000E+00  0.3430848E-03  0.0000000E+00  0.0000000E+00  0.1533390E+01
  0.9240000E+00  0.1760800E+01  0.5998119E+00  0.6958390E-01  0.3181501E-01  0.0000000E+00  0.0000000E+00  0.1149857E-01  0.0000000E+00  0.1530361E-03  0.0000000E+00  0.0000000E+00  0.1529860E+01
  0.8494000E+00  0.1554000E+01  0.7102371E+00  0.7145875E-01  0.1341306E-01  0.0000000E+00  0.0000000E+00  0.1230901E-01  0.0000000E+00  0.3585177E-03  0.0000000E+00  0.0000000E+00  0.1525320E+01
  0.7763000E+00  0.1364800E+01  0.8502030E+00  0.7418320E-01  0.4123349E-01  0.0000000E+00  0.0000000E+00  0.2729671E-01  0.0000000E+00  0.1001318E-02  0.0000000E+00  0.0000000E+00  0.1525050E+01
  0.7157000E+00  0.1217400E+01  0.9969124E+00  0.7604297E-01  0.1244498E+00  0.0000000E+00  0.0000000E+00  0.5343486E-01  0.0000000E+00  0.6705407E-02  0.0000000E+00  0.0000000E+00  0.1524460E+01
ZONE T="Amp 8, Fr=0.280,  Ak=0.075", i=      5, j=  1, k=  1, F=POINT
  0.1012200E+01  0.2018200E+01  0.5000802E+00  0.6650046E-01  0.1269303E-01  0.0000000E+00  0.0000000E+00  0.8761222E-02  0.0000000E+00  0.2050109E-03  0.0000000E+00  0.0000000E+00  0.1533390E+01
  0.9240000E+00  0.1760800E+01  0.5998119E+00  0.6958390E-01  0.2612904E-01  0.0000000E+00  0.0000000E+00  0.8623248E-02  0.0000000E+00  0.2779885E-03  0.0000000E+00  0.0000000E+00  0.1529860E+01
  0.8494000E+00  0.1554000E+01  0.7102371E+00  0.7145875E-01  0.1463324E-01  0.0000000E+00  0.0000000E+00  0.1428810E-01  0.0000000E+00  0.1948921E-03  0.0000000E+00  0.0000000E+00  0.1525320E+01
  0.7763000E+00  0.1364800E+01  0.8502030E+00  0.7418320E-01  0.3976994E-01  0.0000000E+00  0.0000000E+00  0.2567002E-01  0.0000000E+00  0.7217824E-03  0.0000000E+00  0.0000000E+00  0.1525050E+01
  0.7157000E+00  0.1217400E+01  0.9969124E+00  0.7604297E-01  0.1041325E+00  0.0000000E+00  0.0000000E+00  0.3588860E-01  0.0000000E+00  0.5078511E-02  0.0000000E+00  0.0000000E+00  0.1524460E+01
ZONE T="Amp 9, Fr=0.280,  Ak=0.075", i=      5, j=  1, k=  1, F=POINT
  0.1012200E+01  0.2018200E+01  0.5000802E+00  0.6650046E-01  0.1170953E-01  0.0000000E+00  0.0000000E+00  0.7911522E-02  0.0000000E+00  0.2044957E-03  0.0000000E+00  0.0000000E+00  0.1533390E+01
  0.9240000E+00  0.1760800E+01  0.5998119E+00  0.6958390E-01  0.2595103E-01  0.0000000E+00  0.0000000E+00  0.1103684E-01  0.0000000E+00  0.1211971E-03  0.0000000E+00  0.0000000E+00  0.1529860E+01
  0.8494000E+00  0.1554000E+01  0.7102371E+00  0.7145875E-01  0.1601233E-01  0.0000000E+00  0.0000000E+00  0.9966918E-02  0.0000000E+00  0.1503226E-03  0.0000000E+00  0.0000000E+00  0.1525320E+01
  0.7763000E+00  0.1364800E+01  0.8502030E+00  0.7418320E-01  0.3686473E-01  0.0000000E+00  0.0000000E+00  0.2006695E-01  0.0000000E+00  0.7018085E-03  0.0000000E+00  0.0000000E+00  0.1525050E+01
  0.7157000E+00  0.1217400E+01  0.9969124E+00  0.7604297E-01  0.9488507E-01  0.0000000E+00  0.0000000E+00  0.2961571E-01  0.0000000E+00  0.3861978E-02  0.0000000E+00  0.0000000E+00  0.1524460E+01
ZONE T="Amp10, Fr=0.280,  Ak=0.075", i=      5, j=  1, k=  1, F=POINT
  0.1012200E+01  0.2018200E+01  0.5000802E+00  0.6650046E-01  0.1126025E-01  0.0000000E+00  0.0000000E+00  0.7969229E-02  0.0000000E+00  0.2055523E-03  0.0000000E+00  0.0000000E+00  0.1533390E+01
  0.9240000E+00  0.1760800E+01  0.5998119E+00  0.6958390E-01  0.2466959E-01  0.0000000E+00  0.0000000E+00  0.1073008E-01  0.0000000E+00  0.1338813E-03  0.0000000E+00  0.0000000E+00  0.1529860E+01
  0.8494000E+00  0.1554000E+01  0.7102371E+00  0.7145875E-01  0.1465975E-01  0.0000000E+00  0.0000000E+00  0.1200959E-01  0.0000000E+00  0.3025150E-03  0.0000000E+00  0.0000000E+00  0.1525320E+01
  0.7763000E+00  0.1364800E+01  0.8502030E+00  0.7418320E-01  0.3738846E-01  0.0000000E+00  0.0000000E+00  0.1807018E-01  0.0000000E+00  0.7893363E-03  0.0000000E+00  0.0000000E+00  0.1525050E+01
  0.7157000E+00  0.1217400E+01  0.9969124E+00  0.7604297E-01  0.8180325E-01  0.0000000E+00  0.0000000E+00  0.3001136E-01  0.0000000E+00  0.3733554E-02  0.0000000E+00  0.0000000E+00  0.1524460E+01
ZONE T="Phs 0, Fr=0.280,  Ak=0.075", i=      5, j=  1, k=  1, F=POINT
  0.1012200E+01  0.2018200E+01  0.5000802E+00  0.6650046E-01 -0.1800000E+03  0.0000000E+00  0.0000000E+00 -0.1800000E+03  0.0000000E+00 -0.1800000E+03  0.0000000E+00  0.0000000E+00  0.1533390E+01
  0.9240000E+00  0.1760800E+01  0.5998119E+00  0.6958390E-01 -0.1800000E+03  0.0000000E+00  0.0000000E+00 -0.1800000E+03  0.0000000E+00 -0.1800000E+03  0.0000000E+00  0.0000000E+00  0.1529860E+01
  0.8494000E+00  0.1554000E+01  0.7102371E+00  0.7145875E-01 -0.1800000E+03  0.0000000E+00  0.0000000E+00 -0.1800000E+03  0.0000000E+00 -0.1800000E+03  0.0000000E+00  0.0000000E+00  0.1525320E+01
  0.7763000E+00  0.1364800E+01  0.8502030E+00  0.7418320E-01 -0.1800000E+03  0.0000000E+00  0.0000000E+00 -0.1800000E+03  0.0000000E+00 -0.1800000E+03  0.0000000E+00  0.0000000E+00  0.1525050E+01
  0.7157000E+00  0.1217400E+01  0.9969124E+00  0.7604297E-01  0.0000000E+00  0.0000000E+00  0.0000000E+00 -0.1800000E+03  0.0000000E+00  0.0000000E+00  0.0000000E+00  0.0000000E+00  0.1524460E+01
ZONE T="Phs 1, Fr=0.280,  Ak=0.075", i=      5, j=  1, k=  1, F=POINT
  0.1012200E+01  0.2018200E+01  0.5000802E+00  0.6650046E-01  0.0000000E+00  0.0000000E+00  0.0000000E+00  0.3495391E+02  0.0000000E+00 -0.8408807E+02  0.0000000E+00  0.0000000E+00  0.1533390E+01
  0.9240000E+00  0.1760800E+01  0.5998119E+00  0.6958390E-01  0.0000000E+00  0.0000000E+00  0.0000000E+00  0.1884168E+02  0.0000000E+00 -0.1461343E+03  0.0000000E+00  0.0000000E+00  0.1529860E+01
  0.8494000E+00  0.1554000E+01  0.7102371E+00  0.7145875E-01  0.0000000E+00  0.0000000E+00  0.0000000E+00 -0.1333915E+02  0.0000000E+00  0.1560866E+03  0.0000000E+00  0.0000000E+00  0.1525320E+01
  0.7763000E+00  0.1364800E+01  0.8502030E+00  0.7418320E-01  0.0000000E+00  0.0000000E+00  0.0000000E+00 -0.4442839E+02  0.0000000E+00  0.1645712E+03  0.0000000E+00  0.0000000E+00  0.1525050E+01
  0.7157000E+00  0.1217400E+01  0.9969124E+00  0.7604297E-01  0.0000000E+00  0.0000000E+00  0.0000000E+00 -0.3430886E+02  0.0000000E+00 -0.1791944E+03  0.0000000E+00  0.0000000E+00  0.1524460E+01
ZONE T="Phs 2, Fr=0.280,  Ak=0.075", i=      5, j=  1, k=  1, F=POINT
  0.1012200E+01  0.2018200E+01  0.5000802E+00  0.6650046E-01 -0.1527090E+03  0.0000000E+00  0.0000000E+00 -0.9372070E+02  0.0000000E+00 -0.4185479E+02  0.0000000E+00  0.0000000E+00  0.1533390E+01
  0.9240000E+00  0.1760800E+01  0.5998119E+00  0.6958390E-01 -0.1188024E+03  0.0000000E+00  0.0000000E+00  0.1448802E+03  0.0000000E+00  0.1171695E+03  0.0000000E+00  0.0000000E+00  0.1529860E+01
  0.8494000E+00  0.1554000E+01  0.7102371E+00  0.7145875E-01 -0.1514793E+03  0.0000000E+00  0.0000000E+00 -0.1503209E+03  0.0000000E+00 -0.1482270E+03  0.0000000E+00  0.0000000E+00  0.1525320E+01
  0.7763000E+00  0.1364800E+01  0.8502030E+00  0.7418320E-01 -0.3347739E+02  0.0000000E+00  0.0000000E+00  0.7281904E+02  0.0000000E+00  0.9608749E+02  0.0000000E+00  0.0000000E+00  0.1525050E+01
  0.7157000E+00  0.1217400E+01  0.9969124E+00  0.7604297E-01  0.2730545E+02  0.0000000E+00  0.0000000E+00 -0.1228944E+03  0.0000000E+00 -0.1308755E+03  0.0000000E+00  0.0000000E+00  0.1524460E+01
ZONE T="Phs 3, Fr=0.280,  Ak=0.075", i=      5, j=  1, k=  1, F=POINT
  0.1012200E+01  0.2018200E+01  0.5000802E+00  0.6650046E-01 -0.2428652E+02  0.0000000E+00  0.0000000E+00 -0.1474075E+03  0.0000000E+00 -0.1652797E+03  0.0000000E+00  0.0000000E+00  0.1533390E+01
  0.9240000E+00  0.1760800E+01  0.5998119E+00  0.6958390E-01  0.1766270E+02  0.0000000E+00  0.0000000E+00  0.1450410E+03  0.0000000E+00 -0.6530756E+02  0.0000000E+00  0.0000000E+00  0.1529860E+01
  0.8494000E+00  0.1554000E+01  0.7102371E+00  0.7145875E-01  0.1485060E+03  0.0000000E+00  0.0000000E+00  0.1476171E+03  0.0000000E+00  0.1601422E+03  0.0000000E+00  0.0000000E+00  0.1525320E+01
  0.7763000E+00  0.1364800E+01  0.8502030E+00  0.7418320E-01 -0.8159876E+02  0.0000000E+00  0.0000000E+00 -0.1473406E+03  0.0000000E+00  0.1528563E+03  0.0000000E+00  0.0000000E+00  0.1525050E+01
  0.7157000E+00  0.1217400E+01  0.9969124E+00  0.7604297E-01  0.1345187E+03  0.0000000E+00  0.0000000E+00  0.1790448E+03  0.0000000E+00 -0.1437682E+03  0.0000000E+00  0.0000000E+00  0.1524460E+01
ZONE T="Phs 4, Fr=0.280,  Ak=0.075", i=      5, j=  1, k=  1, F=POINT
  0.1012200E+01  0.2018200E+01  0.5000802E+00  0.6650046E-01  0.1574257E+03  0.0000000E+00  0.0000000E+00 -0.1475314E+03  0.0000000E+00  0.1271255E+03  0.0000000E+00  0.0000000E+00  0.1533390E+01
  0.9240000E+00  0.1760800E+01  0.5998119E+00  0.6958390E-01  0.1442328E+03  0.0000000E+00  0.0000000E+00  0.1635009E+03  0.0000000E+00 -0.3323537E+02  0.0000000E+00  0.0000000E+00  0.1529860E+01
  0.8494000E+00  0.1554000E+01  0.7102371E+00  0.7145875E-01  0.1631716E+02  0.0000000E+00  0.0000000E+00  0.1559858E+03  0.0000000E+00 -0.1436515E+03  0.0000000E+00  0.0000000E+00  0.1525320E+01
  0.7763000E+00  0.1364800E+01  0.8502030E+00  0.7418320E-01  0.1310839E+03  0.0000000E+00  0.0000000E+00 -0.7549261E+02  0.0000000E+00 -0.1477909E+03  0.0000000E+00  0.0000000E+00  0.1525050E+01
  0.7157000E+00  0.1217400E+01  0.9969124E+00  0.7604297E-01  0.1587199E+03  0.0000000E+00  0.0000000E+00 -0.1778740E+03  0.0000000E+00 -0.3293793E+02  0.0000000E+00  0.0000000E+00  0.1524460E+01
ZONE T="Phs 5, Fr=0.280,  Ak=0.075", i=      5, j=  1, k=  1, F=POINT
  0.1012200E+01  0.2018200E+01  0.5000802E+00  0.6650046E-01  0.1190123E+03  0.0000000E+00  0.0000000E+00  0.1671928E+03  0.0000000E+00 -0.1267311E+03  0.0000000E+00  0.0000000E+00  0.1533390E+01
  0.9240000E+00  0.1760800E+01  0.5998119E+00  0.6958390E-01  0.1418300E+03  0.0000000E+00  0.0000000E+00  0.1641510E+03  0.0000000E+00  0.1486682E+03  0.0000000E+00  0.0000000E+00  0.1529860E+01
  0.8494000E+00  0.1554000E+01  0.7102371E+00  0.7145875E-01 -0.1742473E+03  0.0000000E+00  0.0000000E+00  0.1778753E+03  0.0000000E+00  0.7657448E+02  0.0000000E+00  0.0000000E+00  0.1525320E+01
  0.7763000E+00  0.1364800E+01  0.8502030E+00  0.7418320E-01 -0.1865089E+02  0.0000000E+00  0.0000000E+00 -0.1584397E+03  0.0000000E+00 -0.7590410E+02  0.0000000E+00  0.0000000E+00  0.1525050E+01
  0.7157000E+00  0.1217400E+01  0.9969124E+00  0.7604297E-01  0.1602948E+03  0.0000000E+00  0.0000000E+00  0.1530135E+03  0.0000000E+00  0.1735277E+03  0.0000000E+00  0.0000000E+00  0.1524460E+01
ZONE T="Phs 6, Fr=0.280,  Ak=0.075", i=      5, j=  1, k=  1, F=POINT
  0.1012200E+01  0.2018200E+01  0.5000802E+00  0.6650046E-01 -0.1727871E+03  0.0000000E+00  0.0000000E+00 -0.1760784E+03  0.0000000E+00 -0.1658535E+03  0.0000000E+00  0.0000000E+00  0.1533390E+01
  0.9240000E+00  0.1760800E+01  0.5998119E+00  0.6958390E-01 -0.1742295E+03  0.0000000E+00  0.0000000E+00  0.1686560E+03  0.0000000E+00  0.1739064E+03  0.0000000E+00  0.0000000E+00  0.1529860E+01
  0.8494000E+00  0.1554000E+01  0.7102371E+00  0.7145875E-01 -0.6615983E+01  0.0000000E+00  0.0000000E+00 -0.1756140E+03  0.0000000E+00  0.9406853E+02  0.0000000E+00  0.0000000E+00  0.1525320E+01
  0.7763000E+00  0.1364800E+01  0.8502030E+00  0.7418320E-01  0.6934116E+02  0.0000000E+00  0.0000000E+00 -0.1419325E+03  0.0000000E+00 -0.7510028E+02  0.0000000E+00  0.0000000E+00  0.1525050E+01
  0.7157000E+00  0.1217400E+01  0.9969124E+00  0.7604297E-01  0.1451828E+03  0.0000000E+00  0.0000000E+00  0.1756391E+03  0.0000000E+00  0.1611665E+03  0.0000000E+00  0.0000000E+00  0.1524460E+01
ZONE T="Phs 7, Fr=0.280,  Ak=0.075", i=      5, j=  1, k=  1, F=POINT
  0.1012200E+01  0.2018200E+01  0.5000802E+00  0.6650046E-01 -0.1742565E+03  0.0000000E+00  0.0000000E+00 -0.1775542E+03  0.0000000E+00 -0.1724956E+03  0.0000000E+00  0.0000000E+00  0.1533390E+01
  0.9240000E+00  0.1760800E+01  0.5998119E+00  0.6958390E-01  0.1725190E+03  0.0000000E+00  0.0000000E+00  0.1779463E+03  0.0000000E+00  0.1269360E+03  0.0000000E+00  0.0000000E+00  0.1529860E+01
  0.8494000E+00  0.1554000E+01  0.7102371E+00  0.7145875E-01 -0.1273122E+02  0.0000000E+00  0.0000000E+00  0.1588358E+03  0.0000000E+00  0.1344483E+03  0.0000000E+00  0.0000000E+00  0.1525320E+01
  0.7763000E+00  0.1364800E+01  0.8502030E+00  0.7418320E-01 -0.4948627E+01  0.0000000E+00  0.0000000E+00 -0.1198667E+03  0.0000000E+00 -0.1472065E+03  0.0000000E+00  0.0000000E+00  0.1525050E+01
  0.7157000E+00  0.1217400E+01  0.9969124E+00  0.7604297E-01  0.1682362E+03  0.0000000E+00  0.0000000E+00  0.1505349E+03  0.0000000E+00  0.1520212E+03  0.0000000E+00  0.0000000E+00  0.1524460E+01
ZONE T="Phs 8, Fr=0.280,  Ak=0.075", i=      5, j=  1, k=  1, F=POINT
  0.1012200E+01  0.2018200E+01  0.5000802E+00  0.6650046E-01 -0.1761256E+03  0.0000000E+00  0.0000000E+00 -0.1793702E+03  0.0000000E+00 -0.1625834E+03  0.0000000E+00  0.0000000E+00  0.1533390E+01
  0.9240000E+00  0.1760800E+01  0.5998119E+00  0.6958390E-01  0.1743395E+03  0.0000000E+00  0.0000000E+00  0.1646434E+03  0.0000000E+00 -0.1746218E+03  0.0000000E+00  0.0000000E+00  0.1529860E+01
  0.8494000E+00  0.1554000E+01  0.7102371E+00  0.7145875E-01 -0.1649387E+02  0.0000000E+00  0.0000000E+00  0.1589708E+03  0.0000000E+00  0.1566275E+03  0.0000000E+00  0.0000000E+00  0.1525320E+01
  0.7763000E+00  0.1364800E+01  0.8502030E+00  0.7418320E-01  0.1309336E+02  0.0000000E+00  0.0000000E+00 -0.1397160E+03  0.0000000E+00 -0.1533625E+03  0.0000000E+00  0.0000000E+00  0.1525050E+01
  0.7157000E+00  0.1217400E+01  0.9969124E+00  0.7604297E-01  0.1561687E+03  0.0000000E+00  0.0000000E+00  0.1702342E+03  0.0000000E+00 -0.1517330E+03  0.0000000E+00  0.0000000E+00  0.1524460E+01
ZONE T="Phs 9, Fr=0.280,  Ak=0.075", i=      5, j=  1, k=  1, F=POINT
  0.1012200E+01  0.2018200E+01  0.5000802E+00  0.6650046E-01 -0.1785509E+03  0.0000000E+00  0.0000000E+00  0.1792570E+03  0.0000000E+00 -0.1671527E+03  0.0000000E+00  0.0000000E+00  0.1533390E+01
  0.9240000E+00  0.1760800E+01  0.5998119E+00  0.6958390E-01  0.1719277E+03  0.0000000E+00  0.0000000E+00  0.1674448E+03  0.0000000E+00  0.1719147E+03  0.0000000E+00  0.0000000E+00  0.1529860E+01
  0.8494000E+00  0.1554000E+01  0.7102371E+00  0.7145875E-01 -0.2768512E+02  0.0000000E+00  0.0000000E+00  0.1389351E+03  0.0000000E+00  0.1608642E+03  0.0000000E+00  0.0000000E+00  0.1525320E+01
  0.7763000E+00  0.1364800E+01  0.8502030E+00  0.7418320E-01 -0.8848444E+01  0.0000000E+00  0.0000000E+00 -0.1583111E+03  0.0000000E+00 -0.1636691E+03  0.0000000E+00  0.0000000E+00  0.1525050E+01
  0.7157000E+00  0.1217400E+01  0.9969124E+00  0.7604297E-01  0.1585260E+03  0.0000000E+00  0.0000000E+00  0.1455007E+03  0.0000000E+00  0.1479976E+03  0.0000000E+00  0.0000000E+00  0.1524460E+01
ZONE T="Phs10, Fr=0.280,  Ak=0.075", i=      5, j=  1, k=  1, F=POINT
  0.1012200E+01  0.2018200E+01  0.5000802E+00  0.6650046E-01 -0.1791225E+03  0.0000000E+00  0.0000000E+00  0.1783840E+03  0.0000000E+00 -0.1716708E+03  0.0000000E+00  0.0000000E+00  0.1533390E+01
  0.9240000E+00  0.1760800E+01  0.5998119E+00  0.6958390E-01  0.1693347E+03  0.0000000E+00  0.0000000E+00  0.1670915E+03  0.0000000E+00  0.1772204E+03  0.0000000E+00  0.0000000E+00  0.1529860E+01
  0.8494000E+00  0.1554000E+01  0.7102371E+00  0.7145875E-01 -0.1742996E+02  0.0000000E+00  0.0000000E+00  0.1612979E+03  0.0000000E+00  0.1345315E+03  0.0000000E+00  0.0000000E+00  0.1525320E+01
  0.7763000E+00  0.1364800E+01  0.8502030E+00  0.7418320E-01  0.5559048E+01  0.0000000E+00  0.0000000E+00 -0.1499988E+03  0.0000000E+00 -0.1381369E+03  0.0000000E+00  0.0000000E+00  0.1525050E+01
  0.7157000E+00  0.1217400E+01  0.9969124E+00  0.7604297E-01  0.1609718E+03  0.0000000E+00  0.0000000E+00  0.1421742E+03  0.0000000E+00  0.1609039E+03  0.0000000E+00  0.0000000E+00  0.1524460E+01
ZONE T="Amp 0 [ND], Fr=0.280,  Ak=0.075", i=      5, j=  1, k=  1, F=POINT
  0.1012200E+01  0.2018200E+01  0.5000802E+00  0.6650046E-01 -0.1286515E+01  0.0000000E+00  0.0000000E+00 -0.6893603E+00  0.0000000E+00 -0.5376905E-01  0.0000000E+00  0.0000000E+00  0.1533390E+01
  0.9240000E+00  0.1760800E+01  0.5998119E+00  0.6958390E-01 -0.2338034E+01  0.0000000E+00  0.0000000E+00 -0.5710855E+00  0.0000000E+00 -0.4968099E-01  0.0000000E+00  0.0000000E+00  0.1529860E+01
  0.8494000E+00  0.1554000E+01  0.7102371E+00  0.7145875E-01 -0.1409079E+01  0.0000000E+00  0.0000000E+00 -0.4359278E+00  0.0000000E+00 -0.3859879E-01  0.0000000E+00  0.0000000E+00  0.1525320E+01
  0.7763000E+00  0.1364800E+01  0.8502030E+00  0.7418320E-01 -0.7259090E+00  0.0000000E+00  0.0000000E+00 -0.3093068E+00  0.0000000E+00 -0.1290321E-01  0.0000000E+00  0.0000000E+00  0.1525050E+01
  0.7157000E+00  0.1217400E+01  0.9969124E+00  0.7604297E-01  0.1536337E+01  0.0000000E+00  0.0000000E+00 -0.1280959E+00  0.0000000E+00  0.5536855E-01  0.0000000E+00  0.0000000E+00  0.1524460E+01
ZONE T="Amp 1 [ND], Fr=0.280,  Ak=0.075", i=      5, j=  1, k=  1, F=POINT
  0.1012200E+01  0.2018200E+01  0.5000802E+00  0.6650046E-01  0.1613242E+02  0.0000000E+00  0.0000000E+00  0.7094035E-01  0.0000000E+00  0.2167411E-01  0.0000000E+00  0.0000000E+00  0.1533390E+01
  0.9240000E+00  0.1760800E+01  0.5998119E+00  0.6958390E-01  0.2024692E+02  0.0000000E+00  0.0000000E+00  0.1148165E+00  0.0000000E+00  0.1826898E-01  0.0000000E+00  0.0000000E+00  0.1529860E+01
  0.8494000E+00  0.1554000E+01  0.7102371E+00  0.7145875E-01  0.2462033E+02  0.0000000E+00  0.0000000E+00  0.1448616E+00  0.0000000E+00  0.8881590E-01  0.0000000E+00  0.0000000E+00  0.1525320E+01
  0.7763000E+00  0.1364800E+01  0.8502030E+00  0.7418320E-01  0.3059591E+02  0.0000000E+00  0.0000000E+00  0.3638904E+00  0.0000000E+00  0.2821323E+00  0.0000000E+00  0.0000000E+00  0.1525050E+01
  0.7157000E+00  0.1217400E+01  0.9969124E+00  0.7604297E-01  0.3677487E+02  0.0000000E+00  0.0000000E+00  0.7476354E+00  0.0000000E+00  0.5462065E+00  0.0000000E+00  0.0000000E+00  0.1524460E+01
ZONE T="Amp 2 [ND], Fr=0.280,  Ak=0.075", i=      5, j=  1, k=  1, F=POINT
  0.1012200E+01  0.2018200E+01  0.5000802E+00  0.6650046E-01  0.6652288E+00  0.0000000E+00  0.0000000E+00  0.1258801E-02  0.0000000E+00  0.3320464E-03  0.0000000E+00  0.0000000E+00  0.1533390E+01
  0.9240000E+00  0.1760800E+01  0.5998119E+00  0.6958390E-01  0.7854689E+00  0.0000000E+00  0.0000000E+00  0.2809275E-02  0.0000000E+00  0.3391991E-03  0.0000000E+00  0.0000000E+00  0.1529860E+01
  0.8494000E+00  0.1554000E+01  0.7102371E+00  0.7145875E-01  0.8896189E+00  0.0000000E+00  0.0000000E+00  0.4829538E-02  0.0000000E+00  0.2180044E-02  0.0000000E+00  0.0000000E+00  0.1525320E+01
  0.7763000E+00  0.1364800E+01  0.8502030E+00  0.7418320E-01  0.8084976E+00  0.0000000E+00  0.0000000E+00  0.9763254E-02  0.0000000E+00  0.5551653E-02  0.0000000E+00  0.0000000E+00  0.1525050E+01
  0.7157000E+00  0.1217400E+01  0.9969124E+00  0.7604297E-01  0.1334039E+01  0.0000000E+00  0.0000000E+00  0.1907643E-01  0.0000000E+00  0.8158940E-02  0.0000000E+00  0.0000000E+00  0.1524460E+01
ZONE T="Amp 3 [ND], Fr=0.280,  Ak=0.075", i=      5, j=  1, k=  1, F=POINT
  0.1012200E+01  0.2018200E+01  0.5000802E+00  0.6650046E-01  0.7570310E-01  0.0000000E+00  0.0000000E+00  0.3120141E-03  0.0000000E+00  0.1387620E-03  0.0000000E+00  0.0000000E+00  0.1533390E+01
  0.9240000E+00  0.1760800E+01  0.5998119E+00  0.6958390E-01  0.3484930E-01  0.0000000E+00  0.0000000E+00  0.1055569E-02  0.0000000E+00  0.3838139E-03  0.0000000E+00  0.0000000E+00  0.1529860E+01
  0.8494000E+00  0.1554000E+01  0.7102371E+00  0.7145875E-01  0.2053823E+00  0.0000000E+00  0.0000000E+00  0.6150655E-03  0.0000000E+00  0.2340692E-03  0.0000000E+00  0.0000000E+00  0.1525320E+01
  0.7763000E+00  0.1364800E+01  0.8502030E+00  0.7418320E-01  0.6026863E+00  0.0000000E+00  0.0000000E+00  0.7652501E-03  0.0000000E+00  0.3923318E-03  0.0000000E+00  0.0000000E+00  0.1525050E+01
  0.7157000E+00  0.1217400E+01  0.9969124E+00  0.7604297E-01  0.1187241E+01  0.0000000E+00  0.0000000E+00  0.3903416E-02  0.0000000E+00  0.4917509E-02  0.0000000E+00  0.0000000E+00  0.1524460E+01
ZONE T="Amp 4 [ND], Fr=0.280,  Ak=0.075", i=      5, j=  1, k=  1, F=POINT
  0.1012200E+01  0.2018200E+01  0.5000802E+00  0.6650046E-01  0.1322489E-01  0.0000000E+00  0.0000000E+00  0.5359592E-03  0.0000000E+00  0.9370075E-04  0.0000000E+00  0.0000000E+00  0.1533390E+01
  0.9240000E+00  0.1760800E+01  0.5998119E+00  0.6958390E-01  0.4699174E-01  0.0000000E+00  0.0000000E+00  0.7755689E-03  0.0000000E+00  0.4072498E-04  0.0000000E+00  0.0000000E+00  0.1529860E+01
  0.8494000E+00  0.1554000E+01  0.7102371E+00  0.7145875E-01  0.9937496E-01  0.0000000E+00  0.0000000E+00  0.5366158E-03  0.0000000E+00  0.4984000E-04  0.0000000E+00  0.0000000E+00  0.1525320E+01
  0.7763000E+00  0.1364800E+01  0.8502030E+00  0.7418320E-01  0.2341610E+00  0.0000000E+00  0.0000000E+00  0.2073651E-02  0.0000000E+00  0.1221913E-03  0.0000000E+00  0.0000000E+00  0.1525050E+01
  0.7157000E+00  0.1217400E+01  0.9969124E+00  0.7604297E-01  0.4347952E+00  0.0000000E+00  0.0000000E+00  0.1774763E-02  0.0000000E+00  0.7012988E-03  0.0000000E+00  0.0000000E+00  0.1524460E+01
ZONE T="Amp 5 [ND], Fr=0.280,  Ak=0.075", i=      5, j=  1, k=  1, F=POINT
  0.1012200E+01  0.2018200E+01  0.5000802E+00  0.6650046E-01  0.1023913E-01  0.0000000E+00  0.0000000E+00  0.6978099E-03  0.0000000E+00  0.1106022E-03  0.0000000E+00  0.0000000E+00  0.1533390E+01
  0.9240000E+00  0.1760800E+01  0.5998119E+00  0.6958390E-01  0.6288666E-01  0.0000000E+00  0.0000000E+00  0.7260262E-03  0.0000000E+00  0.2219131E-04  0.0000000E+00  0.0000000E+00  0.1529860E+01
  0.8494000E+00  0.1554000E+01  0.7102371E+00  0.7145875E-01  0.2678793E-01  0.0000000E+00  0.0000000E+00  0.7506800E-03  0.0000000E+00  0.1322427E-03  0.0000000E+00  0.0000000E+00  0.1525320E+01
  0.7763000E+00  0.1364800E+01  0.8502030E+00  0.7418320E-01  0.6698577E-01  0.0000000E+00  0.0000000E+00  0.8847571E-03  0.0000000E+00  0.2315838E-03  0.0000000E+00  0.0000000E+00  0.1525050E+01
  0.7157000E+00  0.1217400E+01  0.9969124E+00  0.7604297E-01  0.1878778E+00  0.0000000E+00  0.0000000E+00  0.1169762E-02  0.0000000E+00  0.1845889E-02  0.0000000E+00  0.0000000E+00  0.1524460E+01
ZONE T="Amp 6 [ND], Fr=0.280,  Ak=0.075", i=      5, j=  1, k=  1, F=POINT