TITLE = "PITCH AND HEAVE TIME HISTORY DATA FOR MODEL 5512 WO BILGE KEELS"
VARIABLES = t, wave, x, y, z, roll, pitch, yaw, visibility, Uc
ZONE T="sdak1_01, Fr=0.340,  Ak=0.025", i= 1600, j=  1, k=  1, F=POINT
  0.0000000E+00 -0.1023467E+02 -0.2224603E+01 -0.3231702E+00 -0.1283848E+02 -0.3026533E-01 -0.6311727E+00 -0.2576876E-01  0.0000000E+00  0.1871606E+01
  0.9375000E-02 -0.1006131E+02 -0.2227700E+01 -0.3248984E+00 -0.1290334E+02 -0.2991287E-01 -0.6340051E+00 -0.2802923E-01  0.0000000E+00  0.1871637E+01
  0.1875000E-01 -0.9668027E+01 -0.2240260E+01 -0.3365869E+00 -0.1305665E+02 -0.2932099E-01 -0.6400202E+00 -0.3291198E-01  0.0000000E+00  0.1871694E+01
  0.2812500E-01 -0.9124176E+01 -0.2271563E+01 -0.3719074E+00 -0.1328536E+02 -0.2904179E-01 -0.6472654E+00 -0.3906093E-01  0.0000000E+00  0.1871732E+01
  0.3750000E-01 -0.8486002E+01 -0.2336964E+01 -0.4433028E+00 -0.1359265E+02 -0.2934290E-01 -0.6525779E+00 -0.4533081E-01  0.0000000E+00  0.1871747E+01
  0.4687500E-01 -0.7781530E+01 -0.2442605E+01 -0.5426160E+00 -0.1397785E+02 -0.2990031E-01 -0.6536029E+00 -0.5087753E-01  0.0000000E+00  0.1871777E+01
  0.5625000E-01 -0.7023392E+01 -0.2585701E+01 -0.6426833E+00 -0.1443358E+02 -0.2988506E-01 -0.6486149E+00 -0.5497735E-01  0.0000000E+00  0.1871897E+01
  0.6562500E-01 -0.6222632E+01 -0.2737314E+01 -0.7053765E+00 -0.1489473E+02 -0.2878482E-01 -0.6385030E+00 -0.5738883E-01  0.0000000E+00  0.1872198E+01
  0.7500000E-01 -0.5387140E+01 -0.2867828E+01 -0.7116318E+00 -0.1530283E+02 -0.2637365E-01 -0.6253769E+00 -0.5835290E-01  0.0000000E+00  0.1872681E+01
  0.8437500E-01 -0.4518490E+01 -0.2947777E+01 -0.6614481E+00 -0.1560845E+02 -0.2281735E-01 -0.6115423E+00 -0.5859309E-01  0.0000000E+00  0.1873223E+01
  0.9375000E-01 -0.3614320E+01 -0.2982661E+01 -0.5791638E+00 -0.1583691E+02 -0.1862803E-01 -0.5969995E+00 -0.5835081E-01  0.0000000E+00  0.1873614E+01
  0.1031250E+00 -0.2680162E+01 -0.2994337E+01 -0.4933370E+00 -0.1602950E+02 -0.1511648E-01 -0.5795030E+00 -0.5738537E-01  0.0000000E+00  0.1873735E+01
  0.1125000E+00 -0.1731015E+01 -0.3020935E+01 -0.4380271E+00 -0.1622271E+02 -0.1374457E-01 -0.5574704E+00 -0.5521481E-01  0.0000000E+00  0.1873644E+01
  0.1218750E+00 -0.7842413E+00 -0.3076396E+01 -0.4267219E+00 -0.1641350E+02 -0.1504019E-01 -0.5308865E+00 -0.5232148E-01  0.0000000E+00  0.1873464E+01
  0.1312500E+00  0.1530661E+00 -0.3156423E+01 -0.4586676E+00 -0.1657867E+02 -0.1831049E-01 -0.5016951E+00 -0.4991087E-01  0.0000000E+00  0.1873223E+01
  0.1406250E+00  0.1085650E+01 -0.3231626E+01 -0.5048540E+00 -0.1669623E+02 -0.2210870E-01 -0.4711473E+00 -0.4894716E-01  0.0000000E+00  0.1872801E+01
  0.1500000E+00  0.2018641E+01 -0.3280001E+01 -0.5358204E+00 -0.1675048E+02 -0.2519864E-01 -0.4400567E+00 -0.4870661E-01  0.0000000E+00  0.1872108E+01
  0.1593750E+00  0.2949663E+01 -0.3285954E+01 -0.5186395E+00 -0.1672908E+02 -0.2623864E-01 -0.4070368E+00 -0.4750105E-01  0.0000000E+00  0.1871235E+01
  0.1687500E+00  0.3865289E+01 -0.3258225E+01 -0.4500713E+00 -0.1663925E+02 -0.2459574E-01 -0.3704299E+00 -0.4412494E-01  0.0000000E+00  0.1870391E+01
  0.1781250E+00  0.4754073E+01 -0.3213995E+01 -0.3453352E+00 -0.1650511E+02 -0.2020993E-01 -0.3282775E+00 -0.3881976E-01  0.0000000E+00  0.1869789E+01
  0.1875000E+00  0.5606547E+01 -0.3179709E+01 -0.2489623E+00 -0.1635892E+02 -0.1460370E-01 -0.2827498E+00 -0.3327371E-01  0.0000000E+00  0.1869457E+01
  0.1968750E+00  0.6419559E+01 -0.3169159E+01 -0.2009642E+00 -0.1620248E+02 -0.9374504E-02 -0.2366046E+00 -0.2965704E-01  0.0000000E+00  0.1869307E+01
  0.2062500E+00  0.7186795E+01 -0.3185586E+01 -0.2363046E+00 -0.1601048E+02 -0.6014072E-02 -0.1930516E+00 -0.3038093E-01  0.0000000E+00  0.1869156E+01
  0.2156250E+00  0.7903510E+01 -0.3209098E+01 -0.3400648E+00 -0.1575730E+02 -0.4160492E-02 -0.1519699E+00 -0.3520408E-01  0.0000000E+00  0.1868855E+01
  0.2250000E+00  0.8563389E+01 -0.3210982E+01 -0.4615330E+00 -0.1543449E+02 -0.2547838E-02 -0.1133296E+00 -0.4123278E-01  0.0000000E+00  0.1868373E+01
  0.2343750E+00  0.9160911E+01 -0.3155597E+01 -0.5169169E+00 -0.1504356E+02  0.9938894E-03 -0.7559340E-01 -0.4243864E-01  0.0000000E+00  0.1867800E+01
  0.2437500E+00  0.9687003E+01 -0.3038497E+01 -0.4698206E+00 -0.1459837E+02  0.7022345E-02 -0.3681722E-01 -0.3520469E-01  0.0000000E+00  0.1867319E+01
  0.2531250E+00  0.1013101E+02 -0.2881311E+01 -0.3283818E+00 -0.1412877E+02  0.1487444E-01  0.6254444E-02 -0.1928982E-01  0.0000000E+00  0.1866987E+01
  0.2625000E+00  0.1048464E+02 -0.2728346E+01 -0.1500200E+00 -0.1368661E+02  0.2161136E-01  0.5264191E-01 -0.2401879E-03  0.0000000E+00  0.1866746E+01
  0.2718750E+00  0.1074512E+02 -0.2601756E+01  0.1515371E-01 -0.1328454E+02  0.2461049E-01  0.9898426E-01  0.1567469E-01  0.0000000E+00  0.1866475E+01
  0.2812500E+00  0.1091561E+02 -0.2503121E+01  0.1183096E+00 -0.1288911E+02  0.2118913E-01  0.1397502E+00  0.2290864E-01  0.0000000E+00  0.1866174E+01
  0.2906250E+00  0.1100006E+02 -0.2419630E+01  0.1400824E+00 -0.1244968E+02  0.1160364E-01  0.1743370E+00  0.2170278E-01  0.0000000E+00  0.1865993E+01
  0.3000000E+00  0.1100164E+02 -0.2343596E+01  0.9290679E-01 -0.1195780E+02 -0.2337160E-02  0.2043572E+00  0.1567407E-01  0.0000000E+00  0.1865993E+01
  0.3093750E+00  0.1092113E+02 -0.2271254E+01  0.2810092E-01 -0.1145356E+02 -0.1659407E-01  0.2344222E+00  0.1133321E-01  0.0000000E+00  0.1866144E+01
  0.3187500E+00  0.1076091E+02 -0.2197935E+01 -0.6559881E-02 -0.1097524E+02 -0.2800228E-01  0.2666722E+00  0.1229728E-01  0.0000000E+00  0.1866204E+01
  0.3281250E+00  0.1052569E+02 -0.2119570E+01  0.1243395E-01 -0.1054303E+02 -0.3425605E-01  0.3019359E+00  0.1977210E-01  0.0000000E+00  0.1866144E+01
  0.3375000E+00  0.1022141E+02 -0.2031561E+01  0.7867408E-01 -0.1013793E+02 -0.3518969E-01  0.3367928E+00  0.3062302E-01  0.0000000E+00  0.1865993E+01
  0.3468750E+00  0.9851221E+01 -0.1934207E+01  0.1716614E+00 -0.9731323E+01 -0.3214463E-01  0.3683648E+00  0.4123308E-01  0.0000000E+00  0.1866053E+01
  0.3562500E+00  0.9411963E+01 -0.1829920E+01  0.2624599E+00 -0.9283716E+01 -0.2760790E-01  0.3940295E+00  0.4750296E-01  0.0000000E+00  0.1866445E+01
  0.3656250E+00  0.8899690E+01 -0.1727518E+01  0.3235676E+00 -0.8802052E+01 -0.2323765E-01  0.4146759E+00  0.4870913E-01  0.0000000E+00  0.1867288E+01
  0.3750000E+00  0.8314403E+01 -0.1629940E+01  0.3484312E+00 -0.8314064E+01 -0.1888315E-01  0.4312381E+00  0.4605716E-01  0.0000000E+00  0.1868373E+01
  0.3843750E+00  0.7665179E+01 -0.1535754E+01  0.3524235E+00 -0.7868279E+01 -0.1256963E-01  0.4445450E+00  0.4268166E-01  0.0000000E+00  0.1869487E+01
  0.3937500E+00  0.6961884E+01 -0.1441644E+01  0.3568685E+00 -0.7468909E+01 -0.3226478E-02  0.4541447E+00  0.4027055E-01  0.0000000E+00  0.1870150E+01
  0.4031250E+00  0.6210042E+01 -0.1354240E+01  0.3671160E+00 -0.7107512E+01  0.8543584E-02  0.4591029E+00  0.3930611E-01  0.0000000E+00  0.1870180E+01
  0.4125000E+00  0.5410441E+01 -0.1283487E+01  0.3754046E+00 -0.6749733E+01  0.1978642E-01  0.4586359E+00  0.3906500E-01  0.0000000E+00  0.1869578E+01
  0.4218750E+00  0.4566641E+01 -0.1227953E+01  0.3777414E+00 -0.6375686E+01  0.2819581E-01  0.4524117E+00  0.3906500E-01  0.0000000E+00  0.1868825E+01
  0.4312500E+00  0.3688514E+01 -0.1170761E+01  0.3817355E+00 -0.5962765E+01  0.3246050E-01  0.4406868E+00  0.3906500E-01  0.0000000E+00  0.1868222E+01
  0.4406250E+00  0.2786714E+01 -0.1098046E+01  0.4011003E+00 -0.5543818E+01  0.3337938E-01  0.4248176E+00  0.3906500E-01  0.0000000E+00  0.1867770E+01
  0.4500000E+00  0.1869525E+01 -0.1012823E+01  0.4433701E+00 -0.5170377E+01  0.3197753E-01  0.4067786E+00  0.3906500E-01  0.0000000E+00  0.1867198E+01
  0.4593750E+00  0.9424645E+00 -0.9356633E+00  0.5096018E+00 -0.4918700E+01  0.2914419E-01  0.3882578E+00  0.3858271E-01  0.0000000E+00  0.1866353E+01
  0.4687500E+00  0.1263846E-01 -0.8811828E+00  0.5848019E+00 -0.4790903E+01  0.2489444E-01  0.3691794E+00  0.3665358E-01  0.0000000E+00  0.1865509E+01
  0.4781250E+00 -0.9136375E+00 -0.8543541E+00  0.6407139E+00 -0.4749612E+01  0.1882129E-01  0.3476143E+00  0.3183074E-01  0.0000000E+00  0.1864936E+01
  0.4875000E+00 -0.1833992E+01 -0.8500537E+00  0.6343858E+00 -0.4714957E+01  0.1139191E-01  0.3223412E+00  0.2411420E-01  0.0000000E+00  0.1864815E+01
  0.4968750E+00 -0.2749610E+01 -0.8616531E+00  0.5514253E+00 -0.4654683E+01  0.3962593E-02  0.2929535E+00  0.1495080E-01  0.0000000E+00  0.1864965E+01
  0.5062500E+00 -0.3661677E+01 -0.8786041E+00  0.4136092E+00 -0.4570898E+01 -0.1176048E-02  0.2604308E+00  0.7234259E-02  0.0000000E+00  0.1865266E+01
  0.5156250E+00 -0.4567430E+01 -0.8849321E+00  0.2838571E+00 -0.4506096E+01 -0.2939011E-02  0.2254669E+00  0.2652531E-02  0.0000000E+00  0.1865628E+01
  0.5250000E+00 -0.5461741E+01 -0.8702376E+00  0.2095639E+00 -0.4488911E+01 -0.1250924E-02  0.1893731E+00  0.1687839E-02  0.0000000E+00  0.1866020E+01
  0.5343750E+00 -0.6337502E+01 -0.8330892E+00  0.2121284E+00 -0.4535316E+01  0.2999199E-02  0.1523302E+00  0.3375555E-02  0.0000000E+00  0.1866292E+01
  0.5437500E+00 -0.7186819E+01 -0.7896880E+00  0.2673618E+00 -0.4636875E+01  0.9027718E-02  0.1138861E+00  0.6268889E-02  0.0000000E+00  0.1866293E+01
  0.5531250E+00 -0.8001405E+01 -0.7581182E+00  0.3388692E+00 -0.4786058E+01  0.1606593E-01  0.7272957E-01  0.8438889E-02  0.0000000E+00  0.1866023E+01
  0.5625000E+00 -0.8773763E+01 -0.7544284E+00  0.3867145E+00 -0.4978649E+01  0.2298333E-01  0.3023191E-01  0.8438889E-02  0.0000000E+00  0.1865662E+01
  0.5718750E+00 -0.9497184E+01 -0.7731164E+00  0.4035901E+00 -0.5206812E+01  0.2890586E-01 -0.1229617E-01  0.6268889E-02  0.0000000E+00  0.1865360E+01
  0.5812500E+00 -0.1016377E+02 -0.7958722E+00  0.4059997E+00 -0.5450349E+01  0.3330623E-01 -0.5389062E-01  0.3375555E-02  0.0000000E+00  0.1865149E+01
  0.5906250E+00 -0.1076524E+02 -0.8070990E+00  0.4167000E+00 -0.5686349E+01  0.3650111E-01 -0.9571179E-01  0.1205555E-02  0.0000000E+00  0.1864938E+01
  0.6000000E+00 -0.1129684E+02 -0.8159901E+00  0.4307164E+00 -0.5925061E+01  0.3879185E-01 -0.1375935E+00  0.0000000E+00  0.0000000E+00  0.1864756E+01
  0.6093750E+00 -0.1175976E+02 -0.8541163E+00  0.4182827E+00 -0.6214108E+01  0.4034401E-01 -0.1793242E+00 -0.1928950E-02  0.0000000E+00  0.1864665E+01
  0.6187500E+00 -0.1215836E+02 -0.9390342E+00  0.3504639E+00 -0.6576704E+01  0.4032858E-01 -0.2215667E+00 -0.7233642E-02  0.0000000E+00  0.1864756E+01
  0.6281250E+00 -0.1249382E+02 -0.1061702E+01  0.2176917E+00 -0.6982402E+01  0.3737426E-01 -0.2667172E+00 -0.1808426E-01  0.0000000E+00  0.1864938E+01
  0.6375000E+00 -0.1276456E+02 -0.1187009E+01  0.3149662E-01 -0.7356451E+01  0.2940160E-01 -0.3139321E+00 -0.3327518E-01  0.0000000E+00  0.1865149E+01
  0.6468750E+00 -0.1296900E+02 -0.1290315E+01 -0.1734595E+00 -0.7675640E+01  0.1639568E-01 -0.3601525E+00 -0.4846611E-01  0.0000000E+00  0.1865330E+01
  0.6562500E+00 -0.1310832E+02 -0.1360316E+01 -0.3469935E+00 -0.7973426E+01  0.1413589E-04 -0.4007217E+00 -0.5859315E-01  0.0000000E+00  0.1865541E+01
  0.6656250E+00 -0.1318173E+02 -0.1405528E+01 -0.4473614E+00 -0.8302562E+01 -0.1550846E-01 -0.4351877E+00 -0.6245062E-01  0.0000000E+00  0.1865722E+01
  0.6750000E+00 -0.1318725E+02 -0.1442829E+01 -0.4818725E+00 -0.8681734E+01 -0.2768549E-01 -0.4645298E+00 -0.6269105E-01  0.0000000E+00  0.1865812E+01
  0.6843750E+00 -0.1312450E+02 -0.1498291E+01 -0.5044780E+00 -0.9095271E+01 -0.3611000E-01 -0.4916867E+00 -0.6365518E-01  0.0000000E+00  0.1865752E+01
  0.6937500E+00 -0.1299859E+02 -0.1582238E+01 -0.5675469E+00 -0.9517550E+01 -0.4356981E-01 -0.5186023E+00 -0.6751333E-01  0.0000000E+00  0.1865662E+01
  0.7031250E+00 -0.1281309E+02 -0.1684419E+01 -0.6849438E+00 -0.9913604E+01 -0.5301876E-01 -0.5473562E+00 -0.7426537E-01  0.0000000E+00  0.1865662E+01
  0.7125000E+00 -0.1256287E+02 -0.1772660E+01 -0.8293176E+00 -0.1024817E+02 -0.6515012E-01 -0.5770748E+00 -0.8174074E-01  0.0000000E+00  0.1865752E+01
  0.7218750E+00 -0.1223490E+02 -0.1828950E+01 -0.9675905E+00 -0.1050799E+02 -0.7809537E-01 -0.6057687E+00 -0.8776914E-01  0.0000000E+00  0.1865812E+01
  0.7312500E+00 -0.1182012E+02 -0.1852988E+01 -0.1071731E+01 -0.1071024E+02 -0.8825272E-01 -0.6304089E+00 -0.9018049E-01  0.0000000E+00  0.1865692E+01
  0.7406250E+00 -0.1132206E+02 -0.1865723E+01 -0.1125839E+01 -0.1089531E+02 -0.9366302E-01 -0.6501667E+00 -0.8873382E-01  0.0000000E+00  0.1865390E+01
  0.7500000E+00 -0.1075611E+02 -0.1884863E+01 -0.1126896E+01 -0.1110239E+02 -0.9364802E-01 -0.6646350E+00 -0.8391135E-01  0.0000000E+00  0.1864907E+01
  0.7593750E+00 -0.1013808E+02 -0.1923593E+01 -0.1084246E+01 -0.1136643E+02 -0.8890098E-01 -0.6734518E+00 -0.7715963E-01  0.0000000E+00  0.1864332E+01
  0.7687500E+00 -0.9477421E+01 -0.1977241E+01 -0.1016200E+01 -0.1168742E+02 -0.8065765E-01 -0.6763004E+00 -0.6944308E-01  0.0000000E+00  0.1863758E+01
  0.7781250E+00 -0.8774924E+01 -0.2031492E+01 -0.9387358E+00 -0.1202830E+02 -0.7110308E-01 -0.6736330E+00 -0.6220858E-01  0.0000000E+00  0.1863364E+01
  0.7875000E+00 -0.8029799E+01 -0.2063666E+01 -0.8604447E+00 -0.1232518E+02 -0.6282926E-01 -0.6671376E+00 -0.5617981E-01  0.0000000E+00  0.1863243E+01
  0.7968750E+00 -0.7243228E+01 -0.2070222E+01 -0.7782361E+00 -0.1255545E+02 -0.5680074E-01 -0.6579598E+00 -0.5135697E-01  0.0000000E+00  0.1863302E+01
  0.8062500E+00 -0.6421140E+01 -0.2064570E+01 -0.6792991E+00 -0.1274686E+02 -0.5200802E-01 -0.6463103E+00 -0.4653451E-01  0.0000000E+00  0.1863362E+01
  0.8156250E+00 -0.5571034E+01 -0.2079187E+01 -0.5653667E+00 -0.1293917E+02 -0.4670296E-01 -0.6321287E+00 -0.4219451E-01  0.0000000E+00  0.1863272E+01
  0.8250000E+00 -0.4701200E+01 -0.2130274E+01 -0.4558046E+00 -0.1313661E+02 -0.4028265E-01 -0.6160632E+00 -0.4026587E-01  0.0000000E+00  0.1863212E+01
  0.8343750E+00 -0.3818739E+01 -0.2217155E+01 -0.3855003E+00 -0.1329937E+02 -0.3351574E-01 -0.5988073E+00 -0.4315976E-01  0.0000000E+00  0.1863514E+01
  0.8437500E+00 -0.2930360E+01 -0.2312178E+01 -0.3625163E+00 -0.1340034E+02 -0.2700525E-01 -0.5798037E+00 -0.4942939E-01  0.0000000E+00  0.1864629E+01
  0.8531250E+00 -0.2041975E+01 -0.2391001E+01 -0.3699744E+00 -0.1343258E+02 -0.2063068E-01 -0.5568371E+00 -0.5497550E-01  0.0000000E+00  0.1866559E+01
  0.8625000E+00 -0.1157925E+01 -0.2436668E+01 -0.3726864E+00 -0.1341511E+02 -0.1318611E-01 -0.5293342E+00 -0.5569883E-01  0.0000000E+00  0.1868911E+01
  0.8718750E+00 -0.2813648E+00 -0.2455280E+01 -0.3536232E+00 -0.1336086E+02 -0.3947902E-02 -0.4982743E+00 -0.5159939E-01  0.0000000E+00  0.1870932E+01
  0.8812500E+00  0.5873057E+00 -0.2460702E+01 -0.3121059E+00 -0.1327979E+02  0.7279876E-02 -0.4665809E+00 -0.4581198E-01  0.0000000E+00  0.1872138E+01
  0.8906250E+00  0.1445317E+01 -0.2469892E+01 -0.2623747E+00 -0.1318364E+02  0.1902000E-01 -0.4351585E+00 -0.4147142E-01  0.0000000E+00  0.1872500E+01
  0.9000000E+00  0.2287929E+01 -0.2488652E+01 -0.2177667E+00 -0.1308387E+02  0.2978025E-01 -0.4036607E+00 -0.3954229E-01  0.0000000E+00  0.1872379E+01
  0.9093750E+00  0.3105670E+01 -0.2515175E+01 -0.1912429E+00 -0.1299314E+02  0.3800827E-01 -0.3687874E+00 -0.3857778E-01  0.0000000E+00  0.1872319E+01
  0.9187500E+00  0.3888679E+01 -0.2536649E+01 -0.1816744E+00 -0.1290452E+02  0.4359864E-01 -0.3282481E+00 -0.3664889E-01  0.0000000E+00  0.1872681E+01
  0.9281250E+00  0.4625905E+01 -0.2538755E+01 -0.1752719E+00 -0.1280175E+02  0.4682278E-01 -0.2808521E+00 -0.3182667E-01  0.0000000E+00  0.1873614E+01
  0.9375000E+00  0.5305115E+01 -0.2503712E+01 -0.1420448E+00 -0.1264954E+02  0.4825358E-01 -0.2309996E+00 -0.2387000E-01  0.0000000E+00  0.1874669E+01
  0.9468750E+00  0.5914863E+01 -0.2431221E+01 -0.6601728E-01 -0.1243976E+02  0.4811747E-01 -0.1828197E+00 -0.1374334E-01  0.0000000E+00  0.1875362E+01
  0.9562500E+00  0.6448831E+01 -0.2334619E+01  0.5152994E-01 -0.1218416E+02  0.4647500E-01 -0.1398238E+00 -0.3616668E-02  0.0000000E+00  0.1875301E+01
  0.9656250E+00  0.6910968E+01 -0.2239602E+01  0.1818123E+00 -0.1191681E+02  0.4332618E-01 -0.1009573E+00  0.5304505E-02  0.0000000E+00  0.1874849E+01
  0.9750000E+00  0.7312326E+01 -0.2153477E+01  0.3013954E+00 -0.1163198E+02  0.3835408E-01 -0.6599444E-01  0.1277920E-01  0.0000000E+00  0.1874367E+01
  0.9843750E+00  0.7663962E+01 -0.2065090E+01  0.3946812E+00 -0.1128928E+02  0.3101549E-01 -0.3383475E-01  0.1953092E-01  0.0000000E+00  0.1874156E+01
  0.9937500E+00  0.7969429E+01 -0.1963516E+01  0.4613685E+00 -0.1086519E+02  0.2131006E-01 -0.2970988E-02  0.2580080E-01  0.0000000E+00  0.1874006E+01
  0.1003125E+01  0.8221624E+01 -0.1857873E+01  0.5011562E+00 -0.1039498E+02  0.1023253E-01  0.3086210E-01  0.3134753E-01  0.0000000E+00  0.1873735E+01
  0.1012500E+01  0.8407915E+01 -0.1777097E+01  0.5146472E+00 -0.9957324E+01  0.7419765E-04  0.6850852E-01  0.3568852E-01  0.0000000E+00  0.1873253E+01
  0.1021875E+01  0.8515665E+01 -0.1730683E+01  0.5112605E+00 -0.9582058E+01 -0.6919074E-02  0.1076020E+00  0.3882357E-01  0.0000000E+00  0.1872741E+01
  0.1031250E+01  0.8539348E+01 -0.1705218E+01  0.5044833E+00 -0.9239041E+01 -0.8908580E-02  0.1417977E+00  0.4123493E-01  0.0000000E+00  0.1872409E+01
  0.1040625E+01  0.8478961E+01 -0.1661893E+01  0.5067472E+00 -0.8880354E+01 -0.5924691E-02  0.1691810E+00  0.4316388E-01  0.0000000E+00  0.1872379E+01
  0.1050000E+01  0.8338061E+01 -0.1581344E+01  0.5149620E+00 -0.8492435E+01  0.4350619E-03  0.1908975E+00  0.4485166E-01  0.0000000E+00  0.1872440E+01
  0.1059375E+01  0.8120596E+01 -0.1460255E+01  0.5221204E+00 -0.8097288E+01  0.7397716E-02  0.2119958E+00  0.4678055E-01  0.0000000E+00  0.1872379E+01
  0.1068750E+01  0.7829722E+01 -0.1325376E+01  0.5274704E+00 -0.7714809E+01  0.1320012E-01  0.2349477E+00  0.5015611E-01  0.0000000E+00  0.1871988E+01
  0.1078125E+01  0.7467411E+01 -0.1198860E+01  0.5428429E+00 -0.7363079E+01  0.1772160E-01  0.2601150E+00  0.5570166E-01  0.0000000E+00  0.1871446E+01
  0.1087500E+01  0.7032480E+01 -0.1101505E+01  0.5835336E+00 -0.7056860E+01  0.2170049E-01  0.2837304E+00  0.6197049E-01  0.0000000E+00  0.1870843E+01
  0.1096875E+01  0.6526510E+01 -0.1035044E+01  0.6374852E+00 -0.6796753E+01  0.2486531E-01  0.3023577E+00  0.6582802E-01  0.0000000E+00  0.1870361E+01
  0.1106250E+01  0.5955424E+01 -0.9994013E+00  0.6649870E+00 -0.6561355E+01  0.2549808E-01  0.3132991E+00  0.6341629E-01  0.0000000E+00  0.1869969E+01
  0.1115625E+01  0.5332644E+01 -0.9873433E+00  0.6099034E+00 -0.6297918E+01  0.2142883E-01  0.3173229E+00  0.5497648E-01  0.0000000E+00  0.1869789E+01
  0.1125000E+01  0.4668825E+01 -0.9859086E+00  0.4734410E+00 -0.5976004E+01  0.1261265E-01  0.3161770E+00  0.4412555E-01  0.0000000E+00  0.1869879E+01
  0.1134375E+01  0.3969095E+01 -0.9718895E+00  0.3155805E+00 -0.5590798E+01  0.1249938E-02  0.3122429E+00  0.3713290E-01  0.0000000E+00  0.1870271E+01
  0.1143750E+01  0.3230289E+01 -0.9320997E+00  0.2238802E+00 -0.5206505E+01 -0.8786419E-02  0.3068622E+00  0.3568636E-01  0.0000000E+00  0.1870873E+01
  0.1153125E+01  0.2450041E+01 -0.8763361E+00  0.2207185E+00 -0.4890942E+01 -0.1562809E-01  0.3004874E+00  0.3713333E-01  0.0000000E+00  0.1871536E+01
  0.1162500E+01  0.1629139E+01 -0.8391105E+00  0.2620133E+00 -0.4708604E+01 -0.1930549E-01  0.2921087E+00  0.3640994E-01  0.0000000E+00  0.1872199E+01
  0.1171875E+01  0.7735057E+00 -0.8385074E+00  0.2890645E+00 -0.4645919E+01 -0.2141593E-01  0.2804297E+00  0.3206938E-01  0.0000000E+00  0.1872711E+01
  0.1181250E+01 -0.1089653E+00 -0.8660114E+00  0.2852944E+00 -0.4652247E+01 -0.2247136E-01  0.2642596E+00  0.2628197E-01  0.0000000E+00  0.1873012E+01
  0.1190625E+01 -0.1007618E+01 -0.8859053E+00  0.2694661E+00 -0.4656459E+01 -0.2217000E-01  0.2442914E+00  0.2145920E-01  0.0000000E+00  0.1873012E+01
  0.1200000E+01 -0.1909028E+01 -0.8814608E+00  0.2531090E+00 -0.4629627E+01 -0.1989407E-01  0.2212786E+00  0.1760117E-01  0.0000000E+00  0.1872891E+01
  0.1209375E+01 -0.2800568E+01 -0.8578019E+00  0.2284639E+00 -0.4579593E+01 -0.1553852E-01  0.1960655E+00  0.1253778E-01  0.0000000E+00  0.1872831E+01
  0.1218750E+01 -0.3673952E+01 -0.8354238E+00  0.1935738E+00 -0.4538908E+01 -0.9465368E-02  0.1685319E+00  0.5786664E-02  0.0000000E+00  0.1873012E+01
  0.1228125E+01 -0.4528400E+01 -0.8192238E+00  0.1670515E+00 -0.4540726E+01 -0.2171911E-02  0.1391149E+00 -0.9644476E-03  0.0000000E+00  0.1873313E+01
  0.1237500E+01 -0.5365490E+01 -0.7985024E+00  0.1867225E+00 -0.4620001E+01  0.6387410E-02  0.1074977E+00 -0.4822225E-02  0.0000000E+00  0.1873494E+01
  0.1246875E+01 -0.6185612E+01 -0.7652732E+00  0.2638867E+00 -0.4787883E+01  0.1660469E-01  0.7328790E-01 -0.5063335E-02  0.0000000E+00  0.1873283E+01
  0.1256250E+01 -0.6983233E+01 -0.7255642E+00  0.3855065E+00 -0.5032616E+01  0.2921846E-01  0.3532500E-01 -0.3134446E-02  0.0000000E+00  0.1872711E+01
  0.1265625E+01 -0.7747698E+01 -0.7016034E+00  0.5076516E+00 -0.5305981E+01  0.4323401E-01 -0.4295988E-02 -0.1446667E-02  0.0000000E+00  0.1871958E+01
  0.1275000E+01 -0.8467955E+01 -0.7072549E+00  0.6030463E+00 -0.5579652E+01  0.5697858E-01 -0.4320846E-01 -0.1446667E-02  0.0000000E+00  0.1871295E+01
  0.1284375E+01 -0.9135324E+01 -0.7475673E+00  0.6556420E+00 -0.5847602E+01  0.6807111E-01 -0.7982969E-01 -0.3616668E-02  0.0000000E+00  0.1870783E+01
  0.1293750E+01 -0.9747045E+01 -0.8119917E+00  0.6710908E+00 -0.6130929E+01  0.7586346E-01 -0.1169026E+00 -0.7474447E-02  0.0000000E+00  0.1870451E+01
  0.1303125E+01 -0.1029839E+02 -0.8920892E+00  0.6499945E+00 -0.6436563E+01  0.8011407E-01 -0.1578635E+00 -0.1205556E-01  0.0000000E+00  0.1870241E+01
  0.1312500E+01 -0.1078462E+02 -0.9797984E+00  0.5918244E+00 -0.6768116E+01  0.8038550E-01 -0.2022306E+00 -0.1591334E-01  0.0000000E+00  0.1870150E+01
  0.1321875E+01 -0.1119943E+02 -0.1069243E+01  0.5018537E+00 -0.7123783E+01  0.7572827E-01 -0.2466883E+00 -0.1832445E-01  0.0000000E+00  0.1870120E+01
  0.1331250E+01 -0.1154517E+02 -0.1150703E+01  0.3992222E+00 -0.7505975E+01  0.6554007E-01 -0.2868061E+00 -0.1928889E-01  0.0000000E+00  0.1870090E+01
  0.1340625E+01 -0.1182934E+02 -0.1214757E+01  0.3133941E+00 -0.7891786E+01  0.5149414E-01 -0.3227041E+00 -0.1953001E-01  0.0000000E+00  0.1869969E+01
  0.1350000E+01 -0.1205982E+02 -0.1263212E+01  0.2561262E+00 -0.8261315E+01  0.3591142E-01 -0.3559043E+00 -0.1977112E-01  0.0000000E+00  0.1869668E+01
  0.1359375E+01 -0.1223544E+02 -0.1309328E+01  0.2179994E+00 -0.8604010E+01  0.2130840E-01 -0.3891944E+00 -0.2121785E-01  0.0000000E+00  0.1869186E+01
  0.1368750E+01 -0.1234711E+02 -0.1369007E+01  0.1705290E+00 -0.8940967E+01  0.7986298E-02 -0.4226501E+00 -0.2555809E-01  0.0000000E+00  0.1868614E+01
  0.1378125E+01 -0.1238776E+02 -0.1447674E+01  0.9412222E-01 -0.9290881E+01 -0.4431665E-02 -0.4552015E+00 -0.3399760E-01  0.0000000E+00  0.1868132E+01
  0.1387500E+01 -0.1235973E+02 -0.1540734E+01 -0.1868056E-01 -0.9672148E+01 -0.1712093E-01 -0.4839101E+00 -0.4557192E-01  0.0000000E+00  0.1867831E+01
  0.1396875E+01 -0.1227528E+02 -0.1640124E+01 -0.1547670E+00 -0.1008567E+02 -0.3009660E-01 -0.5079771E+00 -0.5690531E-01  0.0000000E+00  0.1867710E+01
  0.1406250E+01 -0.1214503E+02 -0.1739740E+01 -0.2968059E+00 -0.1052604E+02 -0.4313266E-01 -0.5284727E+00 -0.6462185E-01  0.0000000E+00  0.1867650E+01
  0.1415625E+01 -0.1197098E+02 -0.1835964E+01 -0.4240009E+00 -0.1095736E+02 -0.5402870E-01 -0.5476723E+00 -0.6727469E-01  0.0000000E+00  0.1867560E+01
  0.1425000E+01 -0.1174365E+02 -0.1925179E+01 -0.5255778E+00 -0.1135674E+02 -0.6052401E-01 -0.5654857E+00 -0.6631050E-01  0.0000000E+00  0.1867439E+01
  0.1434375E+01 -0.1145200E+02 -0.2003542E+01 -0.5933975E+00 -0.1171542E+02 -0.5969488E-01 -0.5793356E+00 -0.6365833E-01  0.0000000E+00  0.1867499E+01
  0.1443750E+01 -0.1108971E+02 -0.2068039E+01 -0.6299453E+00 -0.1205269E+02 -0.5191809E-01 -0.5877752E+00 -0.6124722E-01  0.0000000E+00  0.1867981E+01
  0.1453125E+01 -0.1066190E+02 -0.2123722E+01 -0.6487077E+00 -0.1237127E+02 -0.3946944E-01 -0.5918295E+00 -0.5955945E-01  0.0000000E+00  0.1868945E+01
  0.1462500E+01 -0.1017765E+02 -0.2183174E+01 -0.6759077E+00 -0.1265941E+02 -0.2718661E-01 -0.5950550E+00 -0.5883611E-01  0.0000000E+00  0.1870060E+01
  0.1471875E+01 -0.9645647E+01 -0.2254384E+01 -0.7264658E+00 -0.1290717E+02 -0.1844550E-01 -0.5992450E+00 -0.5859500E-01  0.0000000E+00  0.1870903E+01
  0.1481250E+01 -0.9066286E+01 -0.2330492E+01 -0.7925466E+00 -0.1311908E+02 -0.1540124E-01 -0.6041127E+00 -0.5859500E-01  0.0000000E+00  0.1871204E+01
  0.1490625E+01 -0.8436805E+01 -0.2389570E+01 -0.8420507E+00 -0.1330567E+02 -0.1766210E-01 -0.6071117E+00 -0.5835383E-01  0.0000000E+00  0.1871084E+01
  0.1500000E+01 -0.7752462E+01 -0.2418279E+01 -0.8519210E+00 -0.1347417E+02 -0.2381142E-01 -0.6061922E+00 -0.5738914E-01  0.0000000E+00  0.1870723E+01
  0.1509375E+01 -0.7012468E+01 -0.2419031E+01 -0.8182398E+00 -0.1363061E+02 -0.3176932E-01 -0.5995157E+00 -0.5473630E-01  0.0000000E+00  0.1870331E+01
  0.1518750E+01 -0.6217216E+01 -0.2410515E+01 -0.7590160E+00 -0.1377650E+02 -0.4010383E-01 -0.5870374E+00 -0.4991309E-01  0.0000000E+00  0.1869939E+01
  0.1528125E+01 -0.5373022E+01 -0.2408328E+01 -0.6896204E+00 -0.1389916E+02 -0.4810636E-01 -0.5693751E+00 -0.4291970E-01  0.0000000E+00  0.1869548E+01
  0.1537500E+01 -0.4490145E+01 -0.2419178E+01 -0.6151753E+00 -0.1397209E+02 -0.5530969E-01 -0.5500856E+00 -0.3520315E-01  0.0000000E+00  0.1868914E+01
  0.1546875E+01 -0.3585954E+01 -0.2440804E+01 -0.5372630E+00 -0.1398202E+02 -0.6133734E-01 -0.5320320E+00 -0.2845142E-01  0.0000000E+00  0.1867738E+01
  0.1556250E+01 -0.2676235E+01 -0.2469135E+01 -0.4647747E+00 -0.1393560E+02 -0.6615950E-01 -0.5173993E+00 -0.2459340E-01  0.0000000E+00  0.1865899E+01
  0.1565625E+01 -0.1774806E+01 -0.2504398E+01 -0.4159457E+00 -0.1385541E+02 -0.6980648E-01 -0.5025551E+00 -0.2411112E-01  0.0000000E+00  0.1863758E+01
  0.1575000E+01 -0.8891680E+00 -0.2547875E+01 -0.3958241E+00 -0.1375745E+02 -0.7161500E-01 -0.4832344E+00 -0.2604000E-01  0.0000000E+00  0.1861918E+01
  0.1584375E+01 -0.2682799E-01 -0.2599643E+01 -0.3902445E+00 -0.1365045E+02 -0.6949019E-01 -0.4549313E+00 -0.2748667E-01  0.0000000E+00  0.1860742E+01
  0.1593750E+01  0.8090606E+00 -0.2644406E+01 -0.3674096E+00 -0.1353894E+02 -0.6129204E-01 -0.4197862E+00 -0.2555778E-01  0.0000000E+00  0.1860169E+01
  0.1603125E+01  0.1618899E+01 -0.2658953E+01 -0.3027562E+00 -0.1342140E+02 -0.4589037E-01 -0.3811599E+00 -0.1856556E-01  0.0000000E+00  0.1859988E+01
  0.1612500E+01  0.2409403E+01 -0.2615477E+01 -0.1846049E+00 -0.1327644E+02 -0.2381247E-01 -0.3420216E+00 -0.8197782E-02  0.0000000E+00  0.1860079E+01
  0.1621875E+01  0.3184121E+01 -0.2514504E+01 -0.3201943E-01 -0.1307752E+02  0.2214195E-02 -0.3012412E+00  0.2169997E-02  0.0000000E+00  0.1860380E+01
  0.1631250E+01  0.3939498E+01 -0.2379621E+01  0.1161954E+00 -0.1279963E+02  0.2804531E-01 -0.2571459E+00  0.8438886E-02  0.0000000E+00  0.1860832E+01
  0.1640625E+01  0.4663297E+01 -0.2252273E+01  0.2112880E+00 -0.1246267E+02  0.4837580E-01 -0.2115288E+00  0.9885554E-02  0.0000000E+00  0.1861495E+01
  0.1650000E+01  0.5340531E+01 -0.2154238E+01  0.2427852E+00 -0.1209737E+02  0.6080914E-01 -0.1670267E+00  0.8197777E-02  0.0000000E+00  0.1862641E+01
  0.1659375E+01  0.5959366E+01 -0.2087022E+01  0.2433133E+00 -0.1174864E+02  0.6587278E-01 -0.1260053E+00  0.6992222E-02  0.0000000E+00  0.1864360E+01
  0.1668750E+01  0.6513881E+01 -0.2037440E+01  0.2591364E+00 -0.1141860E+02  0.6602333E-01 -0.8682185E-01  0.7474444E-02  0.0000000E+00  0.1866351E+01
  0.1678125E+01  0.7006036E+01 -0.1995019E+01  0.3009534E+00 -0.1109157E+02  0.6184871E-01 -0.4818037E-01  0.8438888E-02  0.0000000E+00  0.1867949E+01
  0.1687500E+01  0.7439380E+01 -0.1954105E+01  0.3327472E+00 -0.1071149E+02  0.5172124E-01 -0.8122100E-02  0.7715617E-02  0.0000000E+00  0.1868854E+01
  0.1696875E+01  0.7815491E+01 -0.1909047E+01  0.3301065E+00 -0.1024882E+02  0.3577661E-01  0.3363889E-01  0.5063641E-02  0.0000000E+00  0.1869246E+01
  0.1706250E+01  0.8129248E+01 -0.1853588E+01  0.3053148E+00 -0.9697542E+01  0.1711920E-01  0.7749420E-01  0.3135370E-02  0.0000000E+00  0.1869518E+01
  0.1715625E+01  0.8373151E+01 -0.1780193E+01  0.3063713E+00 -0.9122754E+01  0.1445556E-02  0.1203996E+00  0.3618518E-02  0.0000000E+00  0.1869759E+01
  0.1725000E+01  0.8539700E+01 -0.1691125E+01  0.3430701E+00 -0.8573284E+01 -0.8863333E-02  0.1596125E+00  0.6271666E-02  0.0000000E+00  0.1869698E+01
  0.1734375E+01  0.8624157E+01 -0.1596782E+01  0.3786395E+00 -0.8075953E+01 -0.1498265E-01  0.1924202E+00  0.7718703E-02  0.0000000E+00  0.1869186E+01
  0.1743750E+01  0.8627314E+01 -0.1511635E+01  0.3656830E+00 -0.7597005E+01 -0.1882599E-01  0.2201795E+00  0.7236110E-02  0.0000000E+00  0.1868221E+01
  0.1753125E+01  0.8554301E+01 -0.1434324E+01  0.3075160E+00 -0.7111426E+01 -0.1932302E-01  0.2446386E+00  0.6029629E-02  0.0000000E+00  0.1867075E+01
  0.1762500E+01  0.8414195E+01 -0.1350005E+01  0.2608009E+00 -0.6602341E+01 -0.1172673E-01  0.2692334E+00  0.7234259E-02  0.0000000E+00  0.1865899E+01
  0.1771875E+01  0.8208183E+01 -0.1250990E+01  0.2657738E+00 -0.6088136E+01  0.5605249E-02  0.2963451E+00  0.1085031E-01  0.0000000E+00  0.1864903E+01
  0.1781250E+01  0.7932713E+01 -0.1151222E+01  0.3172352E+00 -0.5598350E+01  0.3045722E-01  0.3282489E+00  0.1494895E-01  0.0000000E+00  0.1864179E+01
  0.1790625E+01  0.7577918E+01 -0.1077979E+01  0.3662090E+00 -0.5176684E+01  0.5490198E-01  0.3622323E+00  0.1736006E-01  0.0000000E+00  0.1863788E+01
  0.1800000E+01  0.7145764E+01 -0.1034275E+01  0.3879074E+00 -0.4823440E+01  0.7357445E-01  0.3935181E+00  0.1808364E-01  0.0000000E+00  0.1863637E+01
  0.1809375E+01  0.6642565E+01 -0.9969018E+00  0.3876059E+00 -0.4499731E+01  0.8383741E-01  0.4155056E+00  0.1904864E-01  0.0000000E+00  0.1863637E+01
  0.1818750E+01  0.6081739E+01 -0.9366966E+00  0.3900185E+00 -0.4148592E+01  0.8731864E-01  0.4271549E+00  0.2121938E-01  0.0000000E+00  0.1863758E+01