TITLE = "PITCH AND HEAVE SPECTRUM DATA FOR MODEL 5512 WO BILGE KEELS"
VARIABLES = fre_w, amp_w, pow_w, fre_x, amp_x, pow_x, fre_y, amp_y, pow_y, fre_z, amp_z, pow_z, fre_roll, amp_roll, pow_roll, fre_pitch, amp_pitch, pow_pitch, fre_yaw, amp_yaw, pow_yaw
ZONE T="seak1_01, Fr=0.410,  Ak=0.025", i=  512, j=  1, k=  1, F=POINT
  0.0000000E+00  0.1944176E+00  0.1889910E-01  0.0000000E+00  0.6065625E+01  0.1839590E+02  0.0000000E+00  0.4416456E+00  0.9752540E-01  0.0000000E+00  0.2781136E+02  0.3867359E+03  0.0000000E+00  0.4828504E-01  0.1165722E-02  0.0000000E+00  0.9212631E+00  0.4243628E+00  0.0000000E+00  0.4286592E-01  0.9187437E-03
  0.1562500E+00  0.4547372E+00  0.1033930E+00  0.1562500E+00  0.2142583E+00  0.2295330E-01  0.1562500E+00  0.7272010E-01  0.2644106E-02  0.1562500E+00  0.8038505E+00  0.3230878E+00  0.1562500E+00  0.5515085E-02  0.1520808E-04  0.1562500E+00  0.5041190E-01  0.1270680E-02  0.1562500E+00  0.5604170E-02  0.1570336E-04
  0.3125000E+00  0.1206961E+00  0.7283770E-02  0.3125000E+00  0.1606283E-01  0.1290073E-03  0.3125000E+00  0.4855044E-01  0.1178573E-02  0.3125000E+00  0.6545328E-01  0.2142066E-02  0.3125000E+00  0.2308646E-02  0.2664923E-05  0.3125000E+00  0.1919029E-01  0.1841336E-03  0.3125000E+00  0.1838627E-02  0.1690274E-05
  0.4687500E+00  0.2058019E+00  0.2117721E-01  0.4687500E+00  0.2081320E-01  0.2165946E-03  0.4687500E+00  0.2807759E-02  0.3941756E-05  0.4687500E+00  0.7458781E-01  0.2781671E-02  0.4687500E+00  0.5855809E-03  0.1714525E-06  0.4687500E+00  0.1071884E-01  0.5744678E-04  0.4687500E+00  0.2269948E-02  0.2576332E-05
  0.6250001E+00  0.2388051E+00  0.2851394E-01  0.6250001E+00  0.4914780E-02  0.1207753E-04  0.6250001E+00  0.1543895E-01  0.1191805E-03  0.6250001E+00  0.3374252E-01  0.5692789E-03  0.6250001E+00  0.2780034E-02  0.3864294E-05  0.6250001E+00  0.4993863E-02  0.1246933E-04  0.6250001E+00  0.3427973E-02  0.5875499E-05
  0.7812501E+00  0.2060121E+00  0.2122050E-01  0.7812501E+00  0.2676682E-01  0.3582314E-03  0.7812501E+00  0.2995786E-01  0.4487366E-03  0.7812501E+00  0.8265790E-01  0.3416164E-02  0.7812501E+00  0.2673780E-02  0.3574550E-05  0.7812501E+00  0.8951970E-02  0.4006888E-04  0.7812501E+00  0.4391057E-02  0.9640691E-05
  0.9375001E+00  0.3114424E+00  0.4849819E-01  0.9375001E+00  0.3088897E-01  0.4770643E-03  0.9375001E+00  0.4083091E-01  0.8335815E-03  0.9375001E+00  0.9222791E-02  0.4252993E-04  0.9375001E+00  0.2755737E-02  0.3797043E-05  0.9375001E+00  0.9309771E-02  0.4333591E-04  0.9375001E+00  0.3122232E-02  0.4874165E-05
  0.1093750E+01  0.1957040E+00  0.1915003E-01  0.1093750E+01  0.1398044E-01  0.9772628E-04  0.1093750E+01  0.5926285E-01  0.1756043E-02  0.1093750E+01  0.5859268E-01  0.1716551E-02  0.1093750E+01  0.6615426E-02  0.2188193E-04  0.1093750E+01  0.4323523E-02  0.9346423E-05  0.1093750E+01  0.2343242E-02  0.2745392E-05
  0.1250000E+01  0.2841143E+00  0.4036047E-01  0.1250000E+01  0.3301600E-01  0.5450281E-03  0.1250000E+01  0.3250501E-01  0.5282879E-03  0.1250000E+01  0.6188890E-01  0.1915118E-02  0.1250000E+01  0.1389516E-02  0.9653770E-06  0.1250000E+01  0.2635639E-02  0.3473298E-05  0.1250000E+01  0.2996287E-02  0.4488868E-05
  0.1406250E+01  0.4767246E+00  0.1136332E+00  0.1406250E+01  0.1664002E-01  0.1384451E-03  0.1406250E+01  0.4018014E-01  0.8072216E-03  0.1406250E+01  0.4018803E-01  0.8075390E-03  0.1406250E+01  0.2629252E-02  0.3456484E-05  0.1406250E+01  0.5374905E-02  0.1444480E-04  0.1406250E+01  0.2917071E-02  0.4254652E-05
  0.1562500E+01  0.6008183E+00  0.1804913E+00  0.1562500E+01  0.2753198E-01  0.3790050E-03  0.1562500E+01  0.2261907E-01  0.2558112E-03  0.1562500E+01  0.1072543E+00  0.5751737E-02  0.1562500E+01  0.1918914E-02  0.1841115E-05  0.1562500E+01  0.4344835E-02  0.9438797E-05  0.1562500E+01  0.2564889E-02  0.3289327E-05
  0.1718750E+01  0.7314060E+00  0.2674774E+00  0.1718750E+01  0.2394295E-01  0.2866323E-03  0.1718750E+01  0.2339835E-01  0.2737413E-03  0.1718750E+01  0.7253354E-01  0.2630557E-02  0.1718750E+01  0.6385208E-03  0.2038544E-06  0.1718750E+01  0.8650512E-02  0.3741568E-04  0.1718750E+01  0.3250984E-02  0.5284448E-05
  0.1875000E+01  0.2215858E+01  0.2455013E+01  0.1875000E+01  0.1376664E-01  0.9476013E-04  0.1875000E+01  0.7403310E-01  0.2740450E-02  0.1875000E+01  0.9355074E-01  0.4375870E-02  0.1875000E+01  0.7427362E-02  0.2758285E-04  0.1875000E+01  0.1176357E-01  0.6919076E-04  0.1875000E+01  0.1639385E-01  0.1343791E-03
  0.2031250E+01  0.6963279E+01  0.2424363E+02  0.2031250E+01  0.8525098E-01  0.3633865E-02  0.2031250E+01  0.8792393E-01  0.3865308E-02  0.2031250E+01  0.3328363E+00  0.5539001E-01  0.2031250E+01  0.4306294E-02  0.9272086E-05  0.2031250E+01  0.3245145E-01  0.5265485E-03  0.2031250E+01  0.7291170E-02  0.2658058E-04
  0.2187500E+01  0.1436671E+01  0.1032012E+01  0.2187500E+01  0.2781815E-01  0.3869248E-03  0.2187500E+01  0.2579232E-01  0.3326220E-03  0.2187500E+01  0.6857571E-01  0.2351314E-02  0.2187500E+01  0.4462553E-02  0.9957190E-05  0.2187500E+01  0.6470284E-02  0.2093229E-04  0.2187500E+01  0.1447403E-02  0.1047488E-05
  0.2343750E+01  0.8107633E+00  0.3286686E+00  0.2343750E+01  0.2626129E-01  0.3448277E-03  0.2343750E+01  0.1258689E+00  0.7921485E-02  0.2343750E+01  0.3507125E-01  0.6149962E-03  0.2343750E+01  0.1366010E-01  0.9329916E-04  0.2343750E+01  0.4394079E-02  0.9653965E-05  0.2343750E+01  0.2756250E-02  0.3798457E-05
  0.2500000E+01  0.5907001E+00  0.1744633E+00  0.2500000E+01  0.4173313E-02  0.8708271E-05  0.2500000E+01  0.5784400E-01  0.1672964E-02  0.2500000E+01  0.3279007E-01  0.5375944E-03  0.2500000E+01  0.9617678E-02  0.4624986E-04  0.2500000E+01  0.5827416E-02  0.1697939E-04  0.2500000E+01  0.2210820E-02  0.2443863E-05
  0.2656250E+01  0.4533150E+00  0.1027472E+00  0.2656250E+01  0.2141043E-01  0.2292033E-03  0.2656250E+01  0.2253236E-01  0.2538537E-03  0.2656250E+01  0.6963722E-01  0.2424671E-02  0.2656250E+01  0.1358631E-02  0.9229386E-06  0.2656250E+01  0.7163296E-02  0.2565640E-04  0.2656250E+01  0.3671209E-02  0.6738888E-05
  0.2812500E+01  0.3595152E+00  0.6462558E-01  0.2812500E+01  0.3145236E-01  0.4946255E-03  0.2812500E+01  0.2672163E-01  0.3570229E-03  0.2812500E+01  0.4386740E-01  0.9621743E-03  0.2812500E+01  0.5420313E-02  0.1468990E-04  0.2812500E+01  0.5152856E-03  0.1327597E-06  0.2812500E+01  0.1774938E-02  0.1575202E-05
  0.2968750E+01  0.3341606E+00  0.5583164E-01  0.2968750E+01  0.1047206E-01  0.5483203E-04  0.2968750E+01  0.2055437E-01  0.2112411E-03  0.2968750E+01  0.1382606E-01  0.9558002E-04  0.2968750E+01  0.7044978E-02  0.2481586E-04  0.2968750E+01  0.1478738E-02  0.1093332E-05  0.2968750E+01  0.2889903E-02  0.4175768E-05
  0.3125000E+01  0.2776766E+00  0.3855214E-01  0.3125000E+01  0.1592897E-01  0.1268661E-03  0.3125000E+01  0.3077083E-01  0.4734220E-03  0.3125000E+01  0.3077844E-01  0.4736563E-03  0.3125000E+01  0.2034648E-02  0.2069897E-05  0.3125000E+01  0.1272887E-02  0.8101210E-06  0.3125000E+01  0.3224998E-02  0.5200306E-05
  0.3281250E+01  0.2462685E+00  0.3032410E-01  0.3281250E+01  0.3802872E-02  0.7230916E-05  0.3281250E+01  0.1217046E-01  0.7405999E-04  0.3281250E+01  0.1590433E-01  0.1264738E-03  0.3281250E+01  0.2334544E-02  0.2725049E-05  0.3281250E+01  0.2041761E-02  0.2084394E-05  0.3281250E+01  0.1219692E-02  0.7438237E-06
  0.3437500E+01  0.2236171E+00  0.2500231E-01  0.3437500E+01  0.4449589E-02  0.9899420E-05  0.3437500E+01  0.1749822E-01  0.1530938E-03  0.3437500E+01  0.7140905E-02  0.2549626E-04  0.3437500E+01  0.1789467E-02  0.1601096E-05  0.3437500E+01  0.1148324E-02  0.6593237E-06  0.3437500E+01  0.3759940E-03  0.7068576E-07
  0.3593750E+01  0.1900468E+00  0.1805889E-01  0.3593750E+01  0.6063821E-02  0.1838496E-04  0.3593750E+01  0.5798172E-01  0.1680940E-02  0.3593750E+01  0.2837141E-01  0.4024685E-03  0.3593750E+01  0.6940779E-02  0.2408721E-04  0.3593750E+01  0.1896032E-02  0.1797468E-05  0.3593750E+01  0.2149897E-02  0.2311028E-05
  0.3750000E+01  0.2303691E+00  0.2653497E-01  0.3750000E+01  0.1744189E-01  0.1521098E-03  0.3750000E+01  0.1538559E+00  0.1183582E-01  0.3750000E+01  0.1086259E-01  0.5899795E-04  0.3750000E+01  0.2221964E-01  0.2468563E-03  0.3750000E+01  0.6826868E-03  0.2330306E-06  0.3750000E+01  0.2479988E-02  0.3075170E-05
  0.3906250E+01  0.2705328E+00  0.3659401E-01  0.3906250E+01  0.8010285E-03  0.3208233E-06  0.3906250E+01  0.2473093E-01  0.3058095E-03  0.3906250E+01  0.6999492E-02  0.2449644E-04  0.3906250E+01  0.5077239E-02  0.1288918E-04  0.3906250E+01  0.2056074E-02  0.2113719E-05  0.3906250E+01  0.8345027E-03  0.3481974E-06
  0.4062500E+01  0.1402654E+00  0.9837185E-02  0.4062500E+01  0.2173669E-01  0.2362418E-03  0.4062500E+01  0.1845275E-01  0.1702521E-03  0.4062500E+01  0.3851064E-01  0.7415349E-03  0.4062500E+01  0.2352281E-02  0.2766612E-05  0.4062500E+01  0.1092637E-02  0.5969276E-06  0.4062500E+01  0.4878024E-03  0.1189756E-06
  0.4218750E+01  0.1605476E+00  0.1288777E-01  0.4218750E+01  0.2525249E-01  0.3188441E-03  0.4218750E+01  0.6980204E-01  0.2436162E-02  0.4218750E+01  0.2560258E-01  0.3277459E-03  0.4218750E+01  0.8067702E-02  0.3254391E-04  0.4218750E+01  0.1168944E-02  0.6832151E-06  0.4218750E+01  0.3456797E-02  0.5974724E-05
  0.4375000E+01  0.1496045E+00  0.1119076E-01  0.4375000E+01  0.1367989E-01  0.9356967E-04  0.4375000E+01  0.3835932E-01  0.7357186E-03  0.4375000E+01  0.2265589E-01  0.2566447E-03  0.4375000E+01  0.4709462E-02  0.1108952E-04  0.4375000E+01  0.2347273E-02  0.2754844E-05  0.4375000E+01  0.1320711E-02  0.8721382E-06
  0.4531250E+01  0.1318442E+00  0.8691446E-02  0.4531250E+01  0.2373588E-01  0.2816959E-03  0.4531250E+01  0.2029894E-01  0.2060234E-03  0.4531250E+01  0.3429732E-01  0.5881533E-03  0.4531250E+01  0.2404712E-02  0.2891321E-05  0.4531250E+01  0.3292009E-02  0.5418663E-05  0.4531250E+01  0.5118243E-03  0.1309820E-06
  0.4687500E+01  0.1484098E+00  0.1101273E-01  0.4687500E+01  0.1717656E-01  0.1475171E-03  0.4687500E+01  0.3036530E-01  0.4610257E-03  0.4687500E+01  0.1305185E-01  0.8517536E-04  0.4687500E+01  0.3094345E-02  0.4787486E-05  0.4687500E+01  0.1638907E-02  0.1343008E-05  0.4687500E+01  0.3777295E-02  0.7133978E-05
  0.4843750E+01  0.1557535E+00  0.1212958E-01  0.4843750E+01  0.1490717E-01  0.1111118E-03  0.4843750E+01  0.3763474E-01  0.7081869E-03  0.4843750E+01  0.3196533E-01  0.5108910E-03  0.4843750E+01  0.4614142E-02  0.1064515E-04  0.4843750E+01  0.1222353E-02  0.7470733E-06  0.4843750E+01  0.1707177E-02  0.1457227E-05
  0.5000000E+01  0.1425032E+00  0.1015358E-01  0.5000000E+01  0.1182690E-01  0.6993782E-04  0.5000000E+01  0.4705137E-01  0.1106916E-02  0.5000000E+01  0.1545816E-01  0.1194773E-03  0.5000000E+01  0.1293917E-01  0.8371105E-04  0.5000000E+01  0.7101234E-03  0.2521376E-06  0.5000000E+01  0.2888760E-02  0.4172467E-05
  0.5156250E+01  0.1076933E+00  0.5798926E-02  0.5156250E+01  0.1051565E-01  0.5528946E-04  0.5156250E+01  0.4362556E-01  0.9515947E-03  0.5156250E+01  0.1627735E-01  0.1324760E-03  0.5156250E+01  0.1169056E-01  0.6833456E-04  0.5156250E+01  0.6216230E-03  0.1932075E-06  0.5156250E+01  0.3137758E-02  0.4922763E-05
  0.5312500E+01  0.1072394E+00  0.5750146E-02  0.5312500E+01  0.1921951E-01  0.1846947E-03  0.5312500E+01  0.3422812E-01  0.5857822E-03  0.5312500E+01  0.2351220E-01  0.2764118E-03  0.5312500E+01  0.7199044E-02  0.2591312E-04  0.5312500E+01  0.1592264E-02  0.1267653E-05  0.5312500E+01  0.3043374E-02  0.4631061E-05
  0.5468750E+01  0.1284786E+00  0.8253382E-02  0.5468750E+01  0.1483555E-01  0.1100467E-03  0.5468750E+01  0.3268443E-01  0.5341358E-03  0.5468750E+01  0.1815959E-01  0.1648853E-03  0.5468750E+01  0.3559091E-02  0.6333563E-05  0.5468750E+01  0.8327798E-03  0.3467611E-06  0.5468750E+01  0.2033950E-02  0.2068477E-05
  0.5625000E+01  0.7477268E-01  0.2795477E-02  0.5625000E+01  0.2128311E-01  0.2264854E-03  0.5625000E+01  0.1174939E-01  0.6902414E-04  0.5625000E+01  0.1884770E-01  0.1776179E-03  0.5625000E+01  0.2039894E-01  0.2080585E-03  0.5625000E+01  0.2620464E-02  0.3433417E-05  0.5625000E+01  0.2097201E-02  0.2199127E-05
  0.5781250E+01  0.1093639E+00  0.5980231E-02  0.5781250E+01  0.5432403E-02  0.1475550E-04  0.5781250E+01  0.9863489E-02  0.4864421E-04  0.5781250E+01  0.5989947E-02  0.1793973E-04  0.5781250E+01  0.1804893E-01  0.1628820E-03  0.5781250E+01  0.7967164E-03  0.3173785E-06  0.5781250E+01  0.2168075E-02  0.2350275E-05
  0.5937500E+01  0.1028809E+00  0.5292242E-02  0.5937500E+01  0.7196749E-02  0.2589660E-04  0.5937500E+01  0.8707755E-02  0.3791250E-04  0.5937500E+01  0.1765352E-01  0.1558233E-03  0.5937500E+01  0.9385787E-02  0.4404650E-04  0.5937500E+01  0.5205586E-03  0.1354906E-06  0.5937500E+01  0.1442073E-02  0.1039788E-05
  0.6093750E+01  0.4573214E-01  0.1045714E-02  0.6093750E+01  0.4006587E-02  0.8026371E-05  0.6093750E+01  0.1433195E-01  0.1027024E-03  0.6093750E+01  0.1416192E-01  0.1002800E-03  0.6093750E+01  0.1041460E-01  0.5423190E-04  0.6093750E+01  0.4736207E-03  0.1121583E-06  0.6093750E+01  0.8490404E-03  0.3604348E-06
  0.6250000E+01  0.7794107E-01  0.3037405E-02  0.6250000E+01  0.1410954E-01  0.9953951E-04  0.6250000E+01  0.1676135E-01  0.1404715E-03  0.6250000E+01  0.2272580E-02  0.2582310E-05  0.6250000E+01  0.1286776E-01  0.8278968E-04  0.6250000E+01  0.5628966E-03  0.1584263E-06  0.6250000E+01  0.2404435E-02  0.2890654E-05
  0.6406250E+01  0.6230230E-01  0.1940788E-02  0.6406250E+01  0.2489380E-01  0.3098506E-03  0.6406250E+01  0.2937147E-01  0.4313416E-03  0.6406250E+01  0.2972784E-01  0.4418722E-03  0.6406250E+01  0.2465132E-02  0.3038437E-05  0.6406250E+01  0.7683644E-03  0.2951919E-06  0.6406250E+01  0.1335832E-02  0.8922236E-06
  0.6562500E+01  0.6645073E-01  0.2207850E-02  0.6562500E+01  0.5511230E-02  0.1518683E-04  0.6562500E+01  0.2670955E-01  0.3567001E-03  0.6562500E+01  0.8387853E-02  0.3517804E-04  0.6562500E+01  0.2329136E-02  0.2712436E-05  0.6562500E+01  0.1243162E-02  0.7727256E-06  0.6562500E+01  0.1191210E-02  0.7094904E-06
  0.6718750E+01  0.6232436E-01  0.1942163E-02  0.6718750E+01  0.9039601E-02  0.4085720E-04  0.6718750E+01  0.4203527E-01  0.8834819E-03  0.6718750E+01  0.6236127E-02  0.1944464E-04  0.6718750E+01  0.2270015E-02  0.2576485E-05  0.6718750E+01  0.1383861E-02  0.9575355E-06  0.6718750E+01  0.2945671E-02  0.4338488E-05
  0.6875000E+01  0.8651129E-01  0.3742102E-02  0.6875000E+01  0.8333609E-02  0.3472453E-04  0.6875000E+01  0.3130810E-01  0.4900987E-03  0.6875000E+01  0.1737225E-01  0.1508976E-03  0.6875000E+01  0.4500729E-02  0.1012828E-04  0.6875000E+01  0.6970959E-03  0.2429714E-06  0.6875000E+01  0.1669147E-02  0.1393026E-05
  0.7031250E+01  0.7214882E-01  0.2602726E-02  0.7031250E+01  0.1144063E-01  0.6544403E-04  0.7031250E+01  0.2438514E-01  0.2973175E-03  0.7031250E+01  0.7674599E-02  0.2944973E-04  0.7031250E+01  0.2154514E-02  0.2320965E-05  0.7031250E+01  0.1102724E-02  0.6079999E-06  0.7031250E+01  0.1100106E-02  0.6051170E-06
  0.7187500E+01  0.6259473E-01  0.1959050E-02  0.7187500E+01  0.7217169E-02  0.2604376E-04  0.7187500E+01  0.1764244E-01  0.1556279E-03  0.7187500E+01  0.1493771E-01  0.1115676E-03  0.7187500E+01  0.1914897E-02  0.1833414E-05  0.7187500E+01  0.3021912E-03  0.4565976E-07  0.7187500E+01  0.4891388E-03  0.1196284E-06
  0.7343750E+01  0.7360503E-01  0.2708850E-02  0.7343750E+01  0.3530478E-02  0.6232137E-05  0.7343750E+01  0.1491886E-01  0.1112862E-03  0.7343750E+01  0.5731872E-02  0.1642718E-04  0.7343750E+01  0.2186748E-02  0.2390933E-05  0.7343750E+01  0.4086642E-03  0.8350322E-07  0.7343750E+01  0.5962604E-03  0.1777632E-06
  0.7500000E+01  0.8099861E-01  0.3280388E-02  0.7500000E+01  0.1597110E-01  0.1275380E-03  0.7500000E+01  0.2368574E-01  0.2805072E-03  0.7500000E+01  0.5075321E-02  0.1287944E-04  0.7500000E+01  0.1410658E-02  0.9949774E-06  0.7500000E+01  0.6521755E-03  0.2126664E-06  0.7500000E+01  0.1221158E-02  0.7456138E-06
  0.7656250E+01  0.7701356E-01  0.2965544E-02  0.7656250E+01  0.6188662E-02  0.1914977E-04  0.7656250E+01  0.5126854E-02  0.1314232E-04  0.7656250E+01  0.2890618E-01  0.4177836E-03  0.7656250E+01  0.1272207E-02  0.8092555E-06  0.7656250E+01  0.1599383E-02  0.1279013E-05  0.7656250E+01  0.4083552E-03  0.8337700E-07
  0.7812500E+01  0.6889325E-01  0.2373140E-02  0.7812500E+01  0.2005058E-01  0.2010129E-03  0.7812500E+01  0.1429217E-01  0.1021331E-03  0.7812500E+01  0.1696136E-01  0.1438439E-03  0.7812500E+01  0.1718969E-02  0.1477427E-05  0.7812500E+01  0.6895417E-03  0.2377339E-06  0.7812500E+01  0.6704116E-03  0.2247259E-06
  0.7968750E+01  0.6338961E-01  0.2009122E-02  0.7968750E+01  0.3782922E-01  0.7155248E-03  0.7968750E+01  0.3291185E-01  0.5415949E-03  0.7968750E+01  0.7935475E-02  0.3148588E-04  0.7968750E+01  0.1148932E-02  0.6600220E-06  0.7968750E+01  0.3289421E-03  0.5410145E-07  0.7968750E+01  0.2303199E-02  0.2652364E-05
  0.8125001E+01  0.6792546E-01  0.2306934E-02  0.8125001E+01  0.1325111E-01  0.8779590E-04  0.8125001E+01  0.2165958E-01  0.2345687E-03  0.8125001E+01  0.8699549E-02  0.3784108E-04  0.8125001E+01  0.1758851E-02  0.1546779E-05  0.8125001E+01  0.3538442E-03  0.6260287E-07  0.8125001E+01  0.2796353E-02  0.3909795E-05
  0.8281251E+01  0.6285566E-01  0.1975417E-02  0.8281251E+01  0.8778131E-02  0.3852779E-04  0.8281251E+01  0.2284583E-01  0.2609659E-03  0.8281251E+01  0.1164973E-01  0.6785810E-04  0.8281251E+01  0.8566282E-03  0.3669059E-06  0.8281251E+01  0.7056324E-03  0.2489586E-06  0.8281251E+01  0.1515891E-02  0.1148962E-05
  0.8437501E+01  0.4216120E-01  0.8887834E-03  0.8437501E+01  0.3053846E-01  0.4662988E-03  0.8437501E+01  0.1781158E-01  0.1586261E-03  0.8437501E+01  0.1542743E-01  0.1190029E-03  0.8437501E+01  0.2258406E-02  0.2550199E-05  0.8437501E+01  0.1216510E-02  0.7399484E-06  0.8437501E+01  0.9836826E-03  0.4838158E-06
  0.8593751E+01  0.5983298E-01  0.1789993E-02  0.8593751E+01  0.5861582E-02  0.1717907E-04  0.8593751E+01  0.1529427E-01  0.1169573E-03  0.8593751E+01  0.2785720E-02  0.3880118E-05  0.8593751E+01  0.7345943E-03  0.2698144E-06  0.8593751E+01  0.4437497E-03  0.9845688E-07  0.8593751E+01  0.7347921E-03  0.2699597E-06
  0.8750001E+01  0.6166087E-01  0.1901032E-02  0.8750001E+01  0.5827085E-02  0.1697746E-04  0.8750001E+01  0.1888748E-01  0.1783684E-03  0.8750001E+01  0.1459554E-01  0.1065149E-03  0.8750001E+01  0.9292989E-03  0.4317982E-06  0.8750001E+01  0.6222727E-03  0.1936117E-06  0.8750001E+01  0.2316894E-02  0.2683998E-05
  0.8906251E+01  0.5802700E-01  0.1683566E-02  0.8906251E+01  0.1053153E-01  0.5545651E-04  0.8906251E+01  0.1666161E-01  0.1388047E-03  0.8906251E+01  0.1449461E-01  0.1050468E-03  0.8906251E+01  0.1347180E-02  0.9074466E-06  0.8906251E+01  0.8466165E-03  0.3583797E-06  0.8906251E+01  0.2663133E-02  0.3546140E-05
  0.9062501E+01  0.6131108E-01  0.1879524E-02  0.9062501E+01  0.2326165E-02  0.2705522E-05  0.9062501E+01  0.9895438E-02  0.4895985E-04  0.9062501E+01  0.9061275E-02  0.4105335E-04  0.9062501E+01  0.2349255E-02  0.2759499E-05  0.9062501E+01  0.1410689E-03  0.9950216E-08  0.9062501E+01  0.1088209E-02  0.5920991E-06
  0.9218751E+01  0.5158233E-01  0.1330369E-02  0.9218751E+01  0.1911831E-01  0.1827549E-03  0.9218751E+01  0.2043582E-01  0.2088115E-03  0.9218751E+01  0.1332884E-01  0.8882895E-04  0.9218751E+01  0.1855369E-02  0.1721197E-05  0.9218751E+01  0.1661049E-02  0.1379542E-05  0.9218751E+01  0.1602675E-02  0.1284284E-05
  0.9375001E+01  0.5417589E-01  0.1467514E-02  0.9375001E+01  0.7728833E-02  0.2986743E-04  0.9375001E+01  0.2718307E-01  0.3694596E-03  0.9375001E+01  0.7031453E-02  0.2472067E-04  0.9375001E+01  0.2822948E-03  0.3984519E-07  0.9375001E+01  0.5886679E-03  0.1732650E-06  0.9375001E+01  0.2527339E-02  0.3193721E-05
  0.9531251E+01  0.5560827E-01  0.1546140E-02  0.9531251E+01  0.3342762E-02  0.5587030E-05  0.9531251E+01  0.9232461E-02  0.4261917E-04  0.9531251E+01  0.9184041E-02  0.4217330E-04  0.9531251E+01  0.5993320E-03  0.1795994E-06  0.9531251E+01  0.6292874E-03  0.1980013E-06  0.9531251E+01  0.9016297E-03  0.4064680E-06
  0.9687501E+01  0.5719955E-01  0.1635894E-02  0.9687501E+01  0.6701949E-02  0.2245806E-04  0.9687501E+01  0.2473234E-01  0.3058444E-03  0.9687501E+01  0.7185178E-02  0.2581339E-04  0.9687501E+01  0.1226202E-02  0.7517855E-06  0.9687501E+01  0.1249477E-02  0.7805968E-06  0.9687501E+01  0.2364691E-02  0.2795883E-05
  0.9843751E+01  0.5511060E-01  0.1518589E-02  0.9843751E+01  0.1093901E-01  0.5983092E-04  0.9843751E+01  0.2583210E-01  0.3336487E-03  0.9843751E+01  0.8729815E-02  0.3810484E-04  0.9843751E+01  0.1219633E-02  0.7437518E-06  0.9843751E+01  0.1330781E-02  0.8854892E-06  0.9843751E+01  0.1760922E-02  0.1550422E-05
  0.1000000E+02  0.7167486E-01  0.2568643E-02  0.1000000E+02  0.4230638E-02  0.8949149E-05  0.1000000E+02  0.1557609E-02  0.1213073E-05  0.1000000E+02  0.2250978E-02  0.2533452E-05  0.1000000E+02  0.4589505E-03  0.1053178E-06  0.1000000E+02  0.7044401E-03  0.2481179E-06  0.1000000E+02  0.1019836E-02  0.5200325E-06
  0.1015625E+02  0.5368582E-01  0.1441084E-02  0.1015625E+02  0.6405623E-02  0.2051600E-04  0.1015625E+02  0.1704927E-02  0.1453388E-05  0.1015625E+02  0.5415013E-02  0.1466118E-04  0.1015625E+02  0.1144647E-02  0.6551084E-06  0.1015625E+02  0.7450799E-04  0.2775720E-08  0.1015625E+02  0.1288124E-02  0.8296323E-06
  0.1031250E+02  0.6855813E-01  0.2350108E-02  0.1031250E+02  0.7166709E-02  0.2568086E-04  0.1031250E+02  0.3377596E-01  0.5704077E-03  0.1031250E+02  0.9628304E-02  0.4635212E-04  0.1031250E+02  0.2028789E-02  0.2057993E-05  0.1031250E+02  0.2615681E-03  0.3420894E-07  0.1031250E+02  0.2622823E-02  0.3439600E-05
  0.1046875E+02  0.5404671E-01  0.1460523E-02  0.1046875E+02  0.1190753E-01  0.7089460E-04  0.1046875E+02  0.2501335E-01  0.3128338E-03  0.1046875E+02  0.1327865E-01  0.8816129E-04  0.1046875E+02  0.6322359E-03  0.1998611E-06  0.1046875E+02  0.1218150E-02  0.7419442E-06  0.1046875E+02  0.1562127E-02  0.1220120E-05
  0.1062500E+02  0.6593829E-01  0.2173929E-02  0.1062500E+02  0.2961231E-02  0.4384446E-05  0.1062500E+02  0.8882618E-02  0.3945045E-04  0.1062500E+02  0.7554390E-02  0.2853440E-04  0.1062500E+02  0.4923631E-03  0.1212107E-06  0.1062500E+02  0.4883384E-03  0.1192372E-06  0.1062500E+02  0.9008689E-03  0.4057823E-06
  0.1078125E+02  0.4323430E-01  0.9346025E-03  0.1078125E+02  0.6417991E-02  0.2059530E-04  0.1078125E+02  0.3214744E-01  0.5167288E-03  0.1078125E+02  0.3857463E-02  0.7440009E-05  0.1078125E+02  0.4189444E-03  0.8775720E-07  0.1078125E+02  0.1029801E-02  0.5302451E-06  0.1078125E+02  0.7694740E-03  0.2960452E-06
  0.1093750E+02  0.5130043E-01  0.1315867E-02  0.1093750E+02  0.8860399E-02  0.3925334E-04  0.1093750E+02  0.5039894E-02  0.1270027E-04  0.1093750E+02  0.9060084E-02  0.4104256E-04  0.1093750E+02  0.4113429E-03  0.8460149E-07  0.1093750E+02  0.4350441E-03  0.9463171E-07  0.1093750E+02  0.1182075E-02  0.6986512E-06
  0.1109375E+02  0.4514107E-01  0.1018858E-02  0.1109375E+02  0.1310501E-01  0.8587067E-04  0.1109375E+02  0.8365246E-02  0.3498866E-04  0.1109375E+02  0.2269028E-01  0.2574244E-03  0.1109375E+02  0.1902703E-02  0.1810139E-05  0.1109375E+02  0.6679639E-03  0.2230879E-06  0.1109375E+02  0.2654630E-02  0.3523530E-05
  0.1125000E+02  0.5723951E-01  0.1638181E-02  0.1125000E+02  0.4096088E-02  0.8388971E-05  0.1125000E+02  0.5601394E-02  0.1568781E-04  0.1125000E+02  0.1046655E-01  0.5477433E-04  0.1125000E+02  0.3149042E-03  0.4958232E-07  0.1125000E+02  0.2992474E-03  0.4477451E-07  0.1125000E+02  0.6055887E-03  0.1833689E-06
  0.1140625E+02  0.4595517E-01  0.1055939E-02  0.1140625E+02  0.5819237E-02  0.1693176E-04  0.1140625E+02  0.3687683E-02  0.6799505E-05  0.1140625E+02  0.1636432E-01  0.1338954E-03  0.1140625E+02  0.8370405E-03  0.3503184E-06  0.1140625E+02  0.1013882E-02  0.5139788E-06  0.1140625E+02  0.1345269E-02  0.9048749E-06
  0.1156250E+02  0.5226562E-01  0.1365847E-02  0.1156250E+02  0.3531268E-02  0.6234928E-05  0.1156250E+02  0.7852411E-02  0.3083018E-04  0.1156250E+02  0.6875151E-02  0.2363385E-04  0.1156250E+02  0.5516813E-03  0.1521761E-06  0.1156250E+02  0.9551584E-03  0.4561637E-06  0.1156250E+02  0.1720136E-02  0.1479434E-05
  0.1171875E+02  0.3602140E-01  0.6487705E-03  0.1171875E+02  0.5377550E-02  0.1445902E-04  0.1171875E+02  0.7094366E-02  0.2516502E-04  0.1171875E+02  0.5318907E-02  0.1414538E-04  0.1171875E+02  0.5708553E-03  0.1629379E-06  0.1171875E+02  0.5254775E-03  0.1380633E-06  0.1171875E+02  0.1033620E-02  0.5341851E-06
  0.1187500E+02  0.4465047E-01  0.9968324E-03  0.1187500E+02  0.5183665E-02  0.1343519E-04  0.1187500E+02  0.2172889E-02  0.2360723E-05  0.1187500E+02  0.1036140E-01  0.5367934E-04  0.1187500E+02  0.3295380E-03  0.5429766E-07  0.1187500E+02  0.9091025E-03  0.4132337E-06  0.1187500E+02  0.8232206E-03  0.3388461E-06
  0.1203125E+02  0.3799068E-01  0.7216459E-03  0.1203125E+02  0.2572034E-02  0.3307678E-05  0.1203125E+02  0.2632104E-01  0.3463985E-03  0.1203125E+02  0.6548726E-02  0.2144290E-04  0.1203125E+02  0.1238670E-02  0.7671511E-06  0.1203125E+02  0.2242964E-03  0.2515444E-07  0.1203125E+02  0.1761787E-02  0.1551947E-05
  0.1218750E+02  0.3716094E-01  0.6904677E-03  0.1218750E+02  0.4611770E-02  0.1063421E-04  0.1218750E+02  0.1739051E-01  0.1512148E-03  0.1218750E+02  0.5232859E-02  0.1369141E-04  0.1218750E+02  0.1127598E-02  0.6357391E-06  0.1218750E+02  0.3626448E-03  0.6575562E-07  0.1218750E+02  0.6328083E-03  0.2002232E-06
  0.1234375E+02  0.4148769E-01  0.8606144E-03  0.1234375E+02  0.3137997E-02  0.4923513E-05  0.1234375E+02  0.1163813E-01  0.6772298E-04  0.1234375E+02  0.2331613E-02  0.2718208E-05  0.1234375E+02  0.4610298E-03  0.1062742E-06  0.1234375E+02  0.2202540E-03  0.2425592E-07  0.1234375E+02  0.1639821E-02  0.1344506E-05
  0.1250000E+02  0.4062386E-01  0.8251491E-03  0.1250000E+02  0.1166708E-01  0.6806033E-04  0.1250000E+02  0.2923661E-02  0.4273897E-05  0.1250000E+02  0.8421442E-02  0.3546035E-04  0.1250000E+02  0.5868205E-03  0.1721792E-06  0.1250000E+02  0.2981430E-03  0.4444462E-07  0.1250000E+02  0.1763739E-02  0.1555388E-05
  0.1265625E+02  0.3609128E-01  0.6512901E-03  0.1265625E+02  0.1513246E-01  0.1144957E-03  0.1265625E+02  0.2712796E-01  0.3679633E-03  0.1265625E+02  0.2938309E-02  0.4316831E-05  0.1265625E+02  0.7528293E-03  0.2833760E-06  0.1265625E+02  0.4973520E-03  0.1236795E-06  0.1265625E+02  0.1560853E-02  0.1218132E-05
  0.1281250E+02  0.4016668E-01  0.8066813E-03  0.1281250E+02  0.8500130E-03  0.3612611E-06  0.1281250E+02  0.9421088E-02  0.4437844E-04  0.1281250E+02  0.4283486E-02  0.9174125E-05  0.1281250E+02  0.5321927E-03  0.1416145E-06  0.1281250E+02  0.7356361E-03  0.2705802E-06  0.1281250E+02  0.5392416E-03  0.1453908E-06
  0.1296875E+02  0.4591659E-01  0.1054167E-02  0.1296875E+02  0.5406250E-02  0.1461377E-04  0.1296875E+02  0.1504743E-01  0.1132126E-03  0.1296875E+02  0.4424694E-02  0.9788957E-05  0.1296875E+02  0.3136731E-03  0.4919541E-07  0.1296875E+02  0.6768311E-03  0.2290502E-06  0.1296875E+02  0.4282532E-03  0.9170039E-07
  0.1312500E+02  0.3559455E-01  0.6334860E-03  0.1312500E+02  0.1108680E-01  0.6145857E-04  0.1312500E+02  0.1797657E-01  0.1615785E-03  0.1312500E+02  0.6119182E-02  0.1872219E-04  0.1312500E+02  0.9182449E-03  0.4215868E-06  0.1312500E+02  0.6457647E-03  0.2085060E-06  0.1312500E+02  0.2039480E-02  0.2079739E-05
  0.1328125E+02  0.3510577E-01  0.6162075E-03  0.1328125E+02  0.3976097E-02  0.7904673E-05  0.1328125E+02  0.1217704E-01  0.7414012E-04  0.1328125E+02  0.9907059E-02  0.4907491E-04  0.1328125E+02  0.6741579E-03  0.2272444E-06  0.1328125E+02  0.3820076E-03  0.7296492E-07  0.1328125E+02  0.1025391E-02  0.5257136E-06
  0.1343750E+02  0.3403760E-01  0.5792793E-03  0.1343750E+02  0.1072868E-02  0.5755230E-06  0.1343750E+02  0.1365896E-01  0.9328356E-04  0.1343750E+02  0.5281889E-02  0.1394918E-04  0.1343750E+02  0.2049400E-03  0.2100020E-07  0.1343750E+02  0.6808214E-03  0.2317589E-06  0.1343750E+02  0.9280086E-03  0.4306000E-06
  0.1359375E+02  0.3716873E-01  0.6907574E-03  0.1359375E+02  0.7989614E-02  0.3191697E-04  0.1359375E+02  0.1922300E-01  0.1847619E-03  0.1359375E+02  0.3836004E-02  0.7357463E-05  0.1359375E+02  0.6256211E-03  0.1957009E-06  0.1359375E+02  0.3547939E-03  0.6293936E-07  0.1359375E+02  0.1991441E-02  0.1982918E-05
  0.1375000E+02  0.4333828E-01  0.9391032E-03  0.1375000E+02  0.2229631E-02  0.2485627E-05  0.1375000E+02  0.1007200E-01  0.5072264E-04  0.1375000E+02  0.5914815E-02  0.1749252E-04  0.1375000E+02  0.1017602E-02  0.5177566E-06  0.1375000E+02  0.1868509E-03  0.1745664E-07  0.1375000E+02  0.4612526E-03  0.1063770E-06
  0.1390625E+02  0.3333203E-01  0.5555121E-03  0.1390625E+02  0.1693819E-01  0.1434511E-03  0.1390625E+02  0.1150849E-01  0.6622271E-04  0.1390625E+02  0.2744856E-01  0.3767117E-03  0.1390625E+02  0.7790496E-03  0.3034591E-06  0.1390625E+02  0.8875418E-03  0.3938652E-06  0.1390625E+02  0.5727331E-03  0.1640116E-06
  0.1406250E+02  0.3845570E-01  0.7394204E-03  0.1406250E+02  0.1119861E-01  0.6270447E-04  0.1406250E+02  0.1936215E-01  0.1874464E-03  0.1406250E+02  0.2731765E-01  0.3731269E-03  0.1406250E+02  0.6202594E-03  0.1923609E-06  0.1406250E+02  0.6324041E-03  0.1999675E-06  0.1406250E+02  0.1160908E-02  0.6738538E-06
  0.1421875E+02  0.3623650E-01  0.6565421E-03  0.1421875E+02  0.1914855E-02  0.1833335E-05  0.1421875E+02  0.9081992E-02  0.4124129E-04  0.1421875E+02  0.8773921E-02  0.3849085E-04  0.1421875E+02  0.5086289E-03  0.1293517E-06  0.1421875E+02  0.1068733E-02  0.5710951E-06  0.1421875E+02  0.7887449E-03  0.3110593E-06
  0.1437500E+02  0.3625769E-01  0.6573099E-03  0.1437500E+02  0.8497676E-02  0.3610525E-04  0.1437500E+02  0.1223597E-01  0.7485950E-04  0.1437500E+02  0.2350948E-01  0.2763479E-03  0.1437500E+02  0.1212623E-02  0.7352276E-06  0.1437500E+02  0.3254574E-03  0.5296126E-07  0.1437500E+02  0.1051150E-02  0.5524584E-06