TITLE = "PITCH AND HEAVE SPECTRUM DATA FOR MODEL 5512 WO BILGE KEELS"
VARIABLES = fre_w, amp_w, pow_w, fre_x, amp_x, pow_x, fre_y, amp_y, pow_y, fre_z, amp_z, pow_z, fre_roll, amp_roll, pow_roll, fre_pitch, amp_pitch, pow_pitch, fre_yaw, amp_yaw, pow_yaw
ZONE T="scak3_01, Fr=0.280,  Ak=0.075", i=  512, j=  1, k=  1, F=POINT
  0.0000000E+00  0.1122084E+01  0.6295360E+00  0.0000000E+00  0.1944809E+01  0.1891142E+01  0.0000000E+00  0.3806995E+00  0.7246605E-01  0.0000000E+00  0.1078666E+02  0.5817598E+02  0.0000000E+00  0.2455225E-01  0.3014065E-03  0.0000000E+00  0.2041355E+00  0.2083564E-01  0.0000000E+00  0.1623202E-01  0.1317392E-03
  0.7812501E-01  0.2486150E+00  0.3090470E-01  0.7812501E-01  0.6597603E-01  0.2176418E-02  0.7812501E-01  0.6036652E-01  0.1822059E-02  0.7812501E-01  0.2866339E+00  0.4107949E-01  0.7812501E-01  0.2217418E-02  0.2458471E-05  0.7812501E-01  0.4426273E-02  0.9795946E-05  0.7812501E-01  0.3971397E-02  0.7885999E-05
  0.1562500E+00  0.5897928E+00  0.1739278E+00  0.1562500E+00  0.7629815E-01  0.2910704E-02  0.1562500E+00  0.3566402E-01  0.6359612E-03  0.1562500E+00  0.4223835E+00  0.8920392E-01  0.1562500E+00  0.4421883E-02  0.9776526E-05  0.1562500E+00  0.7731616E-02  0.2988894E-04  0.1562500E+00  0.3254346E-02  0.5295384E-05
  0.2343750E+00  0.4304661E+00  0.9265053E-01  0.2343750E+00  0.6998181E-01  0.2448726E-02  0.2343750E+00  0.2117952E-01  0.2242860E-03  0.2343750E+00  0.3644430E+00  0.6640935E-01  0.2343750E+00  0.1596929E-02  0.1275092E-05  0.2343750E+00  0.3071239E-01  0.4716255E-03  0.2343750E+00  0.1864262E-02  0.1737737E-05
  0.3125000E+00  0.2286002E+00  0.2612903E-01  0.3125000E+00  0.1238601E-01  0.7670662E-04  0.3125000E+00  0.3438035E-01  0.5910041E-03  0.3125000E+00  0.7602185E-01  0.2889661E-02  0.3125000E+00  0.1540216E-02  0.1186132E-05  0.3125000E+00  0.5546068E-02  0.1537943E-04  0.3125000E+00  0.3138783E-02  0.4925979E-05
  0.3906250E+00  0.8219817E-01  0.3378269E-02  0.3906250E+00  0.1137841E-01  0.6473409E-04  0.3906250E+00  0.1158940E-01  0.6715710E-04  0.3906250E+00  0.9450119E-02  0.4465237E-04  0.3906250E+00  0.7623339E-03  0.2905765E-06  0.3906250E+00  0.1954332E-02  0.1909706E-05  0.3906250E+00  0.1537561E-02  0.1182047E-05
  0.4687500E+00  0.1516243E+00  0.1149497E-01  0.4687500E+00  0.1092557E-01  0.5968403E-04  0.4687500E+00  0.1847298E-01  0.1706254E-03  0.4687500E+00  0.6038696E-01  0.1823292E-02  0.4687500E+00  0.1157045E-02  0.6693760E-06  0.4687500E+00  0.1650784E-02  0.1362544E-05  0.4687500E+00  0.5561765E-03  0.1546662E-06
  0.5468751E+00  0.1310864E+00  0.8591822E-02  0.5468751E+00  0.3678501E-01  0.6765685E-03  0.5468751E+00  0.9562397E-02  0.4571972E-04  0.5468751E+00  0.1579386E+00  0.1247230E-01  0.5468751E+00  0.3129199E-03  0.4895943E-07  0.5468751E+00  0.3249473E-02  0.5279537E-05  0.5468751E+00  0.8772363E-03  0.3847718E-06
  0.6250001E+00  0.5816668E+00  0.1691681E+00  0.6250001E+00  0.7492136E-01  0.2806605E-02  0.6250001E+00  0.3228667E-01  0.5212144E-03  0.6250001E+00  0.3641112E+00  0.6628849E-01  0.6250001E+00  0.2789400E-02  0.3890375E-05  0.6250001E+00  0.1581385E-01  0.1250389E-03  0.6250001E+00  0.2834892E-02  0.4018306E-05
  0.7031251E+00  0.2302584E+00  0.2650946E-01  0.7031251E+00  0.4834436E-01  0.1168588E-02  0.7031251E+00  0.6237655E-02  0.1945417E-04  0.7031251E+00  0.2641397E+00  0.3488488E-01  0.7031251E+00  0.1264665E-02  0.7996886E-06  0.7031251E+00  0.5435486E-02  0.1477225E-04  0.7031251E+00  0.2069935E-02  0.2142316E-05
  0.7812501E+00  0.6889941E-01  0.2373564E-02  0.7812501E+00  0.6171474E-01  0.1904355E-02  0.7812501E+00  0.1713663E-01  0.1468320E-03  0.7812501E+00  0.2901594E+00  0.4209624E-01  0.7812501E+00  0.1347193E-02  0.9074652E-06  0.7812501E+00  0.9544565E-02  0.4554936E-04  0.7812501E+00  0.1247413E-02  0.7780199E-06
  0.8593751E+00  0.2181201E+00  0.2378819E-01  0.8593751E+00  0.1066567E+00  0.5687830E-02  0.8593751E+00  0.2256552E-01  0.2546014E-03  0.8593751E+00  0.4976906E+00  0.1238480E+00  0.8593751E+00  0.1397517E-02  0.9765266E-06  0.8593751E+00  0.2918225E-01  0.4258018E-03  0.8593751E+00  0.2153211E-02  0.2318158E-05
  0.9375001E+00  0.2235388E+00  0.2498479E-01  0.9375001E+00  0.5196095E-01  0.1349970E-02  0.9375001E+00  0.9528616E-02  0.4539726E-04  0.9375001E+00  0.2537749E+00  0.3220084E-01  0.9375001E+00  0.1022166E-02  0.5224114E-06  0.9375001E+00  0.1846078E-01  0.1704001E-03  0.9375001E+00  0.1445509E-02  0.1044749E-05
  0.1015625E+01  0.2538421E+00  0.3221790E-01  0.1015625E+01  0.8176363E-01  0.3342645E-02  0.1015625E+01  0.1469214E-01  0.1079294E-03  0.1015625E+01  0.4074372E+00  0.8300255E-01  0.1015625E+01  0.1193654E-03  0.7124054E-08  0.1015625E+01  0.9152627E-02  0.4188529E-04  0.1015625E+01  0.1632371E-02  0.1332318E-05
  0.1093750E+01  0.1678154E+00  0.1408101E-01  0.1093750E+01  0.4165338E-01  0.8675020E-03  0.1093750E+01  0.4220820E-02  0.8907661E-05  0.1093750E+01  0.2199338E+00  0.2418543E-01  0.1093750E+01  0.5214426E-03  0.1359512E-06  0.1093750E+01  0.4891924E-02  0.1196546E-04  0.1093750E+01  0.1733698E-02  0.1502854E-05
  0.1171875E+01  0.1501802E+00  0.1127705E-01  0.1171875E+01  0.1309460E+00  0.8573420E-02  0.1171875E+01  0.4075513E-01  0.8304905E-03  0.1171875E+01  0.6030553E+00  0.1818379E+00  0.1171875E+01  0.2594253E-02  0.3365074E-05  0.1171875E+01  0.1337876E-01  0.8949565E-04  0.1171875E+01  0.4450581E-02  0.9903833E-05
  0.1250000E+01  0.3163205E+00  0.5002933E-01  0.1250000E+01  0.9846526E-01  0.4847704E-02  0.1250000E+01  0.7458699E-01  0.2781610E-02  0.1250000E+01  0.4877330E+00  0.1189417E+00  0.1250000E+01  0.5969673E-02  0.1781850E-04  0.1250000E+01  0.1154761E-01  0.6667367E-04  0.1250000E+01  0.1131401E-01  0.6400337E-04
  0.1328125E+01  0.3945748E+00  0.7784465E-01  0.1328125E+01  0.3653869E-01  0.6675381E-03  0.1328125E+01  0.5753050E-01  0.1654879E-02  0.1328125E+01  0.1940842E+00  0.1883434E-01  0.1328125E+01  0.3864734E-02  0.7468083E-05  0.1328125E+01  0.1048260E-01  0.5494247E-04  0.1328125E+01  0.7844456E-02  0.3076774E-04
  0.1406250E+01  0.3007789E+00  0.4523396E-01  0.1406250E+01  0.2769541E-01  0.3835178E-03  0.1406250E+01  0.4760917E-01  0.1133316E-02  0.1406250E+01  0.1369441E+00  0.9376846E-02  0.1406250E+01  0.3638969E-02  0.6621047E-05  0.1406250E+01  0.1145932E-01  0.6565799E-04  0.1406250E+01  0.2836758E-02  0.4023599E-05
  0.1484375E+01  0.3368400E+00  0.5673059E-01  0.1484375E+01  0.1747091E-01  0.1526164E-03  0.1484375E+01  0.6527114E-01  0.2130161E-02  0.1484375E+01  0.8268908E-01  0.3418742E-02  0.1484375E+01  0.4724849E-02  0.1116210E-04  0.1484375E+01  0.5072519E-02  0.1286522E-04  0.1484375E+01  0.7594088E-02  0.2883508E-04
  0.1562500E+01  0.5438706E+00  0.1478976E+00  0.1562500E+01  0.1291838E-01  0.8344226E-04  0.1562500E+01  0.2528476E-01  0.3196596E-03  0.1562500E+01  0.9775302E-01  0.4777827E-02  0.1562500E+01  0.1204255E-02  0.7251149E-06  0.1562500E+01  0.5642284E-02  0.1591769E-04  0.1562500E+01  0.2957987E-02  0.4374843E-05
  0.1640625E+01  0.1099484E+01  0.6044325E+00  0.1640625E+01  0.4838711E-02  0.1170656E-04  0.1640625E+01  0.1512939E+00  0.1144493E-01  0.1640625E+01  0.6194716E-01  0.1918725E-02  0.1640625E+01  0.9815348E-02  0.4817053E-04  0.1640625E+01  0.7706576E-02  0.2969566E-04  0.1640625E+01  0.2222451E-01  0.2469645E-03
  0.1718750E+01  0.1143103E+01  0.6533424E+00  0.1718750E+01  0.9466511E-02  0.4480741E-04  0.1718750E+01  0.1079922E+00  0.5831160E-02  0.1718750E+01  0.1047449E+00  0.5485743E-02  0.1718750E+01  0.6799066E-02  0.2311365E-04  0.1718750E+01  0.6970620E-02  0.2429477E-04  0.1718750E+01  0.1589891E-01  0.1263876E-03
  0.1796875E+01  0.9205159E+00  0.4236748E+00  0.1796875E+01  0.1805109E-01  0.1629210E-03  0.1796875E+01  0.2960501E-01  0.4382285E-03  0.1796875E+01  0.1229852E+00  0.7562676E-02  0.1796875E+01  0.1604875E-02  0.1287811E-05  0.1796875E+01  0.6500814E-02  0.2113029E-04  0.1796875E+01  0.5627882E-02  0.1583653E-04
  0.1875000E+01  0.7523010E+00  0.2829784E+00  0.1875000E+01  0.2497439E-01  0.3118600E-03  0.1875000E+01  0.3890698E-01  0.7568765E-03  0.1875000E+01  0.1613822E+00  0.1302210E-01  0.1875000E+01  0.3992822E-02  0.7971315E-05  0.1875000E+01  0.9663949E-02  0.4669595E-04  0.1875000E+01  0.8810640E-03  0.3881369E-06
  0.1953125E+01  0.3339723E+01  0.5576873E+01  0.1953125E+01  0.5136265E-01  0.1319061E-02  0.1953125E+01  0.4955846E-01  0.1228021E-02  0.1953125E+01  0.2589798E+00  0.3353528E-01  0.1953125E+01  0.6610370E-02  0.2184849E-04  0.1953125E+01  0.2167054E-01  0.2348061E-03  0.1953125E+01  0.2731273E-02  0.3729925E-05
  0.2031250E+01  0.1518261E+02  0.1152558E+03  0.2031250E+01  0.2021993E+00  0.2044227E-01  0.2031250E+01  0.1049815E+00  0.5510554E-02  0.2031250E+01  0.1052902E+01  0.5543010E+00  0.2031250E+01  0.1127378E-01  0.6354902E-04  0.2031250E+01  0.7500383E-01  0.2812787E-02  0.2031250E+01  0.2183062E-02  0.2382880E-05
  0.2109375E+01  0.2355179E+01  0.2773433E+01  0.2109375E+01  0.2949027E-01  0.4348379E-03  0.2109375E+01  0.2761038E-01  0.3811666E-03  0.2109375E+01  0.1314453E+00  0.8638931E-02  0.2109375E+01  0.5101797E-02  0.1301417E-04  0.2109375E+01  0.1601248E-01  0.1281998E-03  0.2109375E+01  0.2576368E-02  0.3318837E-05
  0.2187500E+01  0.1302250E+01  0.8479272E+00  0.2187500E+01  0.3062570E-01  0.4689666E-03  0.2187500E+01  0.3745301E-01  0.7013641E-03  0.2187500E+01  0.1032074E+00  0.5325883E-02  0.2187500E+01  0.4662444E-02  0.1086919E-04  0.2187500E+01  0.7376110E-02  0.2720350E-04  0.2187500E+01  0.1016498E-02  0.5166341E-06
  0.2265625E+01  0.9238078E+00  0.4267104E+00  0.2265625E+01  0.1588108E-01  0.1261044E-03  0.2265625E+01  0.3280531E-01  0.5380943E-03  0.2265625E+01  0.4095280E-01  0.8385659E-03  0.2265625E+01  0.3681567E-02  0.6776969E-05  0.2265625E+01  0.3117146E-02  0.4858301E-05  0.2265625E+01  0.5525270E-03  0.1526431E-06
  0.2343750E+01  0.7300428E+00  0.2664813E+00  0.2343750E+01  0.7158170E-02  0.2561969E-04  0.2343750E+01  0.2584535E-01  0.3339910E-03  0.2343750E+01  0.2921011E-01  0.4266153E-03  0.2343750E+01  0.2346613E-02  0.2753296E-05  0.2343750E+01  0.2571789E-02  0.3307049E-05  0.2343750E+01  0.1625724E-02  0.1321489E-05
  0.2421875E+01  0.5421833E+00  0.1469814E+00  0.2421875E+01  0.9777820E-03  0.4780288E-06  0.2421875E+01  0.2817786E-01  0.3969958E-03  0.2421875E+01  0.4461059E-02  0.9950522E-05  0.2421875E+01  0.4206467E-02  0.8847185E-05  0.2421875E+01  0.3007072E-02  0.4521242E-05  0.2421875E+01  0.9868816E-03  0.4869676E-06
  0.2500000E+01  0.5268247E+00  0.1387721E+00  0.2500000E+01  0.6801149E-02  0.2312782E-04  0.2500000E+01  0.5650467E-01  0.1596389E-02  0.2500000E+01  0.2527758E-01  0.3194781E-03  0.2500000E+01  0.7345219E-02  0.2697612E-04  0.2500000E+01  0.2942121E-02  0.4328038E-05  0.2500000E+01  0.1998870E-02  0.1997740E-05
  0.2578125E+01  0.4175878E+00  0.8718978E-01  0.2578125E+01  0.8495399E-02  0.3608590E-04  0.2578125E+01  0.7965779E-01  0.3172682E-02  0.2578125E+01  0.2965944E-01  0.4398412E-03  0.2578125E+01  0.1296407E-01  0.8403357E-04  0.2578125E+01  0.1685359E-02  0.1420217E-05  0.2578125E+01  0.1041514E-02  0.5423761E-06
  0.2656250E+01  0.3420240E+00  0.5849019E-01  0.2656250E+01  0.5807797E-02  0.1686525E-04  0.2656250E+01  0.2482678E-01  0.3081844E-03  0.2656250E+01  0.4412454E-02  0.9734874E-05  0.2656250E+01  0.4939070E-02  0.1219720E-04  0.2656250E+01  0.1109685E-02  0.6157002E-06  0.2656250E+01  0.7668301E-03  0.2940142E-06
  0.2734375E+01  0.3057614E+00  0.4674503E-01  0.2734375E+01  0.1461506E-01  0.1068000E-03  0.2734375E+01  0.2086544E-01  0.2176833E-03  0.2734375E+01  0.1118229E-01  0.6252176E-04  0.2734375E+01  0.3913456E-02  0.7657568E-05  0.2734375E+01  0.9771665E-03  0.4774272E-06  0.2734375E+01  0.2495259E-02  0.3113160E-05
  0.2812500E+01  0.2611856E+00  0.3410895E-01  0.2812500E+01  0.1300496E-01  0.8456445E-04  0.2812500E+01  0.1335966E-01  0.8924030E-04  0.2812500E+01  0.9300149E-02  0.4324638E-04  0.2812500E+01  0.1193602E-02  0.7123423E-06  0.2812500E+01  0.1723665E-02  0.1485510E-05  0.2812500E+01  0.4797361E-03  0.1150733E-06
  0.2890625E+01  0.2572297E+00  0.3308357E-01  0.2890625E+01  0.5079649E-02  0.1290142E-04  0.2890625E+01  0.2275440E-01  0.2588815E-03  0.2890625E+01  0.2385430E-01  0.2845138E-03  0.2890625E+01  0.3206019E-03  0.5139278E-07  0.2890625E+01  0.2154147E-02  0.2320175E-05  0.2890625E+01  0.1411406E-02  0.9960340E-06
  0.2968750E+01  0.2168209E+00  0.2350566E-01  0.2968750E+01  0.7613241E-02  0.2898072E-04  0.2968750E+01  0.1551345E-01  0.1203336E-03  0.2968750E+01  0.1606580E-01  0.1290550E-03  0.2968750E+01  0.2292692E-02  0.2628218E-05  0.2968750E+01  0.7295948E-03  0.2661543E-06  0.2968750E+01  0.1853304E-02  0.1717368E-05
  0.3046875E+01  0.2184076E+00  0.2385094E-01  0.3046875E+01  0.9521072E-02  0.4532541E-04  0.3046875E+01  0.9564470E-02  0.4573955E-04  0.3046875E+01  0.1454436E-01  0.1057692E-03  0.3046875E+01  0.2819032E-02  0.3973470E-05  0.3046875E+01  0.7853502E-03  0.3083875E-06  0.3046875E+01  0.1726257E-02  0.1489982E-05
  0.3125000E+01  0.2689582E+00  0.3616926E-01  0.3125000E+01  0.6072205E-02  0.1843584E-04  0.3125000E+01  0.2068371E-01  0.2139080E-03  0.3125000E+01  0.6206936E-02  0.1926303E-04  0.3125000E+01  0.2550563E-03  0.3252687E-07  0.3125000E+01  0.8420676E-03  0.3545389E-06  0.3125000E+01  0.2931222E-02  0.4296032E-05
  0.3203125E+01  0.2248944E+00  0.2528874E-01  0.3203125E+01  0.1678532E-01  0.1408734E-03  0.3203125E+01  0.2306603E-01  0.2660208E-03  0.3203125E+01  0.1051508E-01  0.5528350E-04  0.3203125E+01  0.1762797E-02  0.1553727E-05  0.3203125E+01  0.1071429E-02  0.5739802E-06  0.3203125E+01  0.5745399E-03  0.1650481E-06
  0.3281250E+01  0.1882731E+00  0.1772338E-01  0.3281250E+01  0.4271294E-02  0.9121976E-05  0.3281250E+01  0.2915422E-01  0.4249842E-03  0.3281250E+01  0.3187910E-02  0.5081385E-05  0.3281250E+01  0.4027209E-02  0.8109205E-05  0.3281250E+01  0.6279157E-03  0.1971391E-06  0.3281250E+01  0.9573231E-03  0.4582338E-06
  0.3359375E+01  0.1638620E+00  0.1342538E-01  0.3359375E+01  0.2519103E-01  0.3172940E-03  0.3359375E+01  0.1102253E-01  0.6074810E-04  0.3359375E+01  0.3624687E-01  0.6569178E-03  0.3359375E+01  0.1599771E-02  0.1279634E-05  0.3359375E+01  0.2483384E-02  0.3083597E-05  0.3359375E+01  0.1043212E-02  0.5441456E-06
  0.3437500E+01  0.1880451E+00  0.1768047E-01  0.3437500E+01  0.2599535E-02  0.3378791E-05  0.3437500E+01  0.1591771E-01  0.1266867E-03  0.3437500E+01  0.2254992E-01  0.2542494E-03  0.3437500E+01  0.3707718E-02  0.6873587E-05  0.3437500E+01  0.1065278E-02  0.5674087E-06  0.3437500E+01  0.1457141E-03  0.1061630E-07
  0.3515625E+01  0.1651659E+00  0.1363989E-01  0.3515625E+01  0.4226186E-02  0.8930326E-05  0.3515625E+01  0.1111859E-01  0.6181150E-04  0.3515625E+01  0.1404939E-01  0.9869271E-04  0.3515625E+01  0.1738732E-02  0.1511595E-05  0.3515625E+01  0.1433324E-02  0.1027208E-05  0.3515625E+01  0.1077400E-02  0.5803954E-06
  0.3593750E+01  0.1768118E+00  0.1563121E-01  0.3593750E+01  0.4939161E-02  0.1219766E-04  0.3593750E+01  0.1461108E-01  0.1067418E-03  0.3593750E+01  0.6635911E-02  0.2201766E-04  0.3593750E+01  0.3219634E-02  0.5183020E-05  0.3593750E+01  0.6000302E-03  0.1800181E-06  0.3593750E+01  0.1295296E-02  0.8388960E-06
  0.3671875E+01  0.7862171E-01  0.3090686E-02  0.3671875E+01  0.1054486E-01  0.5559706E-04  0.3671875E+01  0.2054951E-01  0.2111412E-03  0.3671875E+01  0.2108430E-01  0.2222739E-03  0.3671875E+01  0.1106470E-02  0.6121383E-06  0.3671875E+01  0.1314791E-02  0.8643378E-06  0.3671875E+01  0.2267767E-02  0.2571384E-05
  0.3750000E+01  0.2116683E+00  0.2240174E-01  0.3750000E+01  0.5791286E-02  0.1676950E-04  0.3750000E+01  0.2837869E-01  0.4026751E-03  0.3750000E+01  0.1962940E-01  0.1926566E-03  0.3750000E+01  0.1965406E-02  0.1931411E-05  0.3750000E+01  0.2100456E-02  0.2205957E-05  0.3750000E+01  0.3070215E-02  0.4713111E-05
  0.3828125E+01  0.1995562E+00  0.1991134E-01  0.3828125E+01  0.3089585E-02  0.4772767E-05  0.3828125E+01  0.3411256E-01  0.5818334E-03  0.3828125E+01  0.9927038E-02  0.4927304E-04  0.3828125E+01  0.6310949E-02  0.1991404E-04  0.3828125E+01  0.7424730E-03  0.2756331E-06  0.3828125E+01  0.3931516E-03  0.7728411E-07
  0.3906250E+01  0.1574445E+00  0.1239438E-01  0.3906250E+01  0.2865667E-02  0.4106024E-05  0.3906250E+01  0.1136319E-01  0.6456105E-04  0.3906250E+01  0.3730246E-02  0.6957368E-05  0.3906250E+01  0.3926846E-03  0.7710061E-07  0.3906250E+01  0.5432611E-03  0.1475663E-06  0.3906250E+01  0.2246576E-03  0.2523551E-07
  0.3984375E+01  0.2422741E+00  0.2934836E-01  0.3984375E+01  0.1015587E-01  0.5157088E-04  0.3984375E+01  0.1884883E-01  0.1776392E-03  0.3984375E+01  0.2044926E-01  0.2090862E-03  0.3984375E+01  0.4034025E-02  0.8136678E-05  0.3984375E+01  0.1661876E-02  0.1380916E-05  0.3984375E+01  0.1416866E-02  0.1003755E-05
  0.4062500E+01  0.6191232E+00  0.1916568E+00  0.4062500E+01  0.7642879E-02  0.2920680E-04  0.4062500E+01  0.6402311E-02  0.2049479E-04  0.4062500E+01  0.2371699E-01  0.2812479E-03  0.4062500E+01  0.1810660E-03  0.1639246E-07  0.4062500E+01  0.2304901E-02  0.2656285E-05  0.4062500E+01  0.4490824E-03  0.1008375E-06
  0.4140625E+01  0.2073686E+00  0.2150087E-01  0.4140625E+01  0.1157374E-01  0.6697574E-04  0.4140625E+01  0.1348830E-01  0.9096706E-04  0.4140625E+01  0.1837768E-01  0.1688695E-03  0.4140625E+01  0.1390997E-02  0.9674358E-06  0.4140625E+01  0.2280135E-02  0.2599508E-05  0.4140625E+01  0.1227296E-02  0.7531274E-06
  0.4218750E+01  0.1400832E+00  0.9811650E-02  0.4218750E+01  0.6149071E-02  0.1890554E-04  0.4218750E+01  0.1060505E-01  0.5623350E-04  0.4218750E+01  0.8820274E-02  0.3889862E-04  0.4218750E+01  0.1330272E-02  0.8848120E-06  0.4218750E+01  0.5990456E-03  0.1794278E-06  0.4218750E+01  0.7904523E-03  0.3124074E-06
  0.4296875E+01  0.1330508E+00  0.8851256E-02  0.4296875E+01  0.3228863E-02  0.5212779E-05  0.4296875E+01  0.1745911E-01  0.1524102E-03  0.4296875E+01  0.1186111E-01  0.7034298E-04  0.4296875E+01  0.2251676E-02  0.2535023E-05  0.4296875E+01  0.6404094E-03  0.2050621E-06  0.4296875E+01  0.1847338E-02  0.1706330E-05
  0.4375000E+01  0.1531916E+00  0.1173383E-01  0.4375000E+01  0.8686406E-02  0.3772682E-04  0.4375000E+01  0.1538575E-01  0.1183606E-03  0.4375000E+01  0.2539331E-01  0.3224101E-03  0.4375000E+01  0.2311993E-03  0.2672655E-07  0.4375000E+01  0.1763491E-02  0.1554950E-05  0.4375000E+01  0.8453456E-03  0.3573046E-06
  0.4453125E+01  0.1012337E+00  0.5124128E-02  0.4453125E+01  0.8848287E-02  0.3914609E-04  0.4453125E+01  0.2760972E-01  0.3811484E-03  0.4453125E+01  0.2009491E-01  0.2019027E-03  0.4453125E+01  0.1154879E-02  0.6668729E-06  0.4453125E+01  0.1295151E-02  0.8387085E-06  0.4453125E+01  0.2818363E-02  0.3971585E-05
  0.4531250E+01  0.1051467E+00  0.5527916E-02  0.4531250E+01  0.5604375E-02  0.1570451E-04  0.4531250E+01  0.2211791E-01  0.2446010E-03  0.4531250E+01  0.6263780E-02  0.1961747E-04  0.4531250E+01  0.2461480E-02  0.3029442E-05  0.4531250E+01  0.2879170E-03  0.4144811E-07  0.4531250E+01  0.1154950E-02  0.6669551E-06
  0.4609375E+01  0.1516378E+00  0.1149701E-01  0.4609375E+01  0.1241193E-02  0.7702797E-06  0.4609375E+01  0.8878368E-02  0.3941271E-04  0.4609375E+01  0.1455474E-01  0.1059202E-03  0.4609375E+01  0.1826562E-02  0.1668165E-05  0.4609375E+01  0.4933806E-03  0.1217122E-06  0.4609375E+01  0.5571867E-03  0.1552285E-06
  0.4687500E+01  0.1277335E+00  0.8157923E-02  0.4687500E+01  0.4396563E-02  0.9664883E-05  0.4687500E+01  0.1413848E-02  0.9994836E-06  0.4687500E+01  0.7977367E-02  0.3181920E-04  0.4687500E+01  0.3424089E-02  0.5862192E-05  0.4687500E+01  0.7331214E-03  0.2687335E-06  0.4687500E+01  0.4279925E-03  0.9158877E-07
  0.4765625E+01  0.1053875E+00  0.5553266E-02  0.4765625E+01  0.5779263E-02  0.1669994E-04  0.4765625E+01  0.3568548E-01  0.6367268E-03  0.4765625E+01  0.4811269E-02  0.1157415E-04  0.4765625E+01  0.5198712E-02  0.1351331E-04  0.4765625E+01  0.5182277E-03  0.1342800E-06  0.4765625E+01  0.1716572E-02  0.1473309E-05
  0.4843750E+01  0.9853482E-01  0.4854556E-02  0.4843750E+01  0.4605351E-02  0.1060463E-04  0.4843750E+01  0.1113056E-01  0.6194474E-04  0.4843750E+01  0.5211413E-02  0.1357941E-04  0.4843750E+01  0.9223898E-03  0.4254015E-06  0.4843750E+01  0.9248023E-03  0.4276297E-06  0.4843750E+01  0.7262442E-03  0.2637153E-06
  0.4921875E+01  0.1205984E+00  0.7271993E-02  0.4921875E+01  0.1113123E-01  0.6195215E-04  0.4921875E+01  0.1120368E-01  0.6276125E-04  0.4921875E+01  0.9736776E-02  0.4740240E-04  0.4921875E+01  0.1038292E-02  0.5390253E-06  0.4921875E+01  0.1092535E-02  0.5968162E-06  0.4921875E+01  0.8311762E-03  0.3454270E-06
  0.5000000E+01  0.8386718E-01  0.3516852E-02  0.5000000E+01  0.1198752E-01  0.7185027E-04  0.5000000E+01  0.2521778E-01  0.3179681E-03  0.5000000E+01  0.3415069E-02  0.5831349E-05  0.5000000E+01  0.2027785E-02  0.2055956E-05  0.5000000E+01  0.4554502E-03  0.1037174E-06  0.5000000E+01  0.1376292E-02  0.9470895E-06
  0.5078125E+01  0.5173326E-01  0.1338165E-02  0.5078125E+01  0.1044418E-01  0.5454044E-04  0.5078125E+01  0.2384036E-01  0.2841814E-03  0.5078125E+01  0.9409230E-02  0.4426681E-04  0.5078125E+01  0.3359808E-02  0.5644154E-05  0.5078125E+01  0.7656508E-03  0.2931106E-06  0.5078125E+01  0.2000182E-02  0.2000364E-05
  0.5156250E+01  0.9222755E-01  0.4252960E-02  0.5156250E+01  0.1227232E-01  0.7530490E-04  0.5156250E+01  0.1816612E-01  0.1650039E-03  0.5156250E+01  0.1327757E-01  0.8814695E-04  0.5156250E+01  0.3479200E-02  0.6052417E-05  0.5156250E+01  0.1124449E-02  0.6321926E-06  0.5156250E+01  0.1655957E-02  0.1371096E-05
  0.5234375E+01  0.1076009E+00  0.5788981E-02  0.5234375E+01  0.4302789E-02  0.9256997E-05  0.5234375E+01  0.4229184E-02  0.8943000E-05  0.5234375E+01  0.8897659E-02  0.3958417E-04  0.5234375E+01  0.1504276E-02  0.1131423E-05  0.5234375E+01  0.1067788E-02  0.5700861E-06  0.5234375E+01  0.2973326E-03  0.4420332E-07
  0.5312500E+01  0.7604118E-01  0.2891131E-02  0.5312500E+01  0.4736430E-02  0.1121688E-04  0.5312500E+01  0.7083825E-02  0.2509029E-04  0.5312500E+01  0.9916483E-02  0.4916832E-04  0.5312500E+01  0.9808000E-03  0.4809843E-06  0.5312500E+01  0.7875664E-03  0.3101304E-06  0.5312500E+01  0.3395794E-03  0.5765710E-07
  0.5390625E+01  0.7387985E-01  0.2729116E-02  0.5390625E+01  0.1062494E-01  0.5644463E-04  0.5390625E+01  0.7448334E-02  0.2773884E-04  0.5390625E+01  0.7918348E-02  0.3135012E-04  0.5390625E+01  0.1354726E-02  0.9176418E-06  0.5390625E+01  0.4546522E-03  0.1033543E-06  0.5390625E+01  0.7203465E-03  0.2594495E-06
  0.5468750E+01  0.1337343E+00  0.8942437E-02  0.5468750E+01  0.4707158E-02  0.1107867E-04  0.5468750E+01  0.5149871E-02  0.1326058E-04  0.5468750E+01  0.1881322E-01  0.1769685E-03  0.5468750E+01  0.1292712E-02  0.8355523E-06  0.5468750E+01  0.1507585E-02  0.1136406E-05  0.5468750E+01  0.1328928E-02  0.8830247E-06
  0.5546875E+01  0.1322941E+00  0.8750864E-02  0.5546875E+01  0.8613725E-02  0.3709813E-04  0.5546875E+01  0.2004434E-01  0.2008877E-03  0.5546875E+01  0.2001952E-01  0.2003906E-03  0.5546875E+01  0.2411383E-02  0.2907385E-05  0.5546875E+01  0.1673540E-02  0.1400369E-05  0.5546875E+01  0.1819811E-02  0.1655855E-05
  0.5625000E+01  0.9639222E-01  0.4645730E-02  0.5625000E+01  0.7579111E-02  0.2872146E-04  0.5625000E+01  0.2276395E-01  0.2590987E-03  0.5625000E+01  0.1764373E-01  0.1556505E-03  0.5625000E+01  0.7497776E-02  0.2810832E-04  0.5625000E+01  0.1178799E-02  0.6947831E-06  0.5625000E+01  0.2947977E-02  0.4345284E-05
  0.5703125E+01  0.6318624E-01  0.1996250E-02  0.5703125E+01  0.1423371E-01  0.1012992E-03  0.5703125E+01  0.2502426E-01  0.3131069E-03  0.5703125E+01  0.1653961E-01  0.1367794E-03  0.5703125E+01  0.5725896E-02  0.1639294E-04  0.5703125E+01  0.1437057E-02  0.1032566E-05  0.5703125E+01  0.2184989E-02  0.2387088E-05
  0.5781250E+01  0.5674947E-01  0.1610251E-02  0.5781250E+01  0.8713128E-02  0.3795930E-04  0.5781250E+01  0.7538938E-02  0.2841779E-04  0.5781250E+01  0.7688967E-02  0.2956011E-04  0.5781250E+01  0.2610149E-01  0.3406439E-03  0.5781250E+01  0.1055911E-02  0.5574739E-06  0.5781250E+01  0.1361532E-02  0.9268849E-06
  0.5859375E+01  0.1191151E+00  0.7094202E-02  0.5859375E+01  0.3968434E-02  0.7874234E-05  0.5859375E+01  0.1318854E-01  0.8696879E-04  0.5859375E+01  0.1023835E-01  0.5241194E-04  0.5859375E+01  0.1893980E-01  0.1793580E-03  0.5859375E+01  0.1690592E-03  0.1429051E-07  0.5859375E+01  0.1012649E-02  0.5127291E-06
  0.5937500E+01  0.1666740E+00  0.1389011E-01  0.5937500E+01  0.4956916E-02  0.1228551E-04  0.5937500E+01  0.4353926E-02  0.9478335E-05  0.5937500E+01  0.2751832E-02  0.3786291E-05  0.5937500E+01  0.8084261E-02  0.3267764E-04  0.5937500E+01  0.1408449E-03  0.9918637E-08  0.5937500E+01  0.1218760E-02  0.7426880E-06
  0.6015625E+01  0.9195364E-01  0.4227736E-02  0.6015625E+01  0.5235547E-02  0.1370548E-04  0.6015625E+01  0.2402751E-01  0.2886606E-03  0.6015625E+01  0.4964205E-02  0.1232166E-04  0.6015625E+01  0.1469244E-01  0.1079339E-03  0.6015625E+01  0.6326963E-03  0.2001523E-06  0.6015625E+01  0.2428749E-02  0.2949411E-05
  0.6093750E+01  0.3763112E-01  0.7080508E-03  0.6093750E+01  0.1371099E-02  0.9399561E-06  0.6093750E+01  0.2997449E-02  0.4492349E-05  0.6093750E+01  0.1133415E-02  0.6423146E-06  0.6093750E+01  0.3314920E-02  0.5494348E-05  0.6093750E+01  0.3045434E-03  0.4637335E-07  0.6093750E+01  0.3095636E-03  0.4791480E-07
  0.6171875E+01  0.6894888E-01  0.2376974E-02  0.6171875E+01  0.7400226E-02  0.2738167E-04  0.6171875E+01  0.1330191E-01  0.8847047E-04  0.6171875E+01  0.9129453E-02  0.4167345E-04  0.6171875E+01  0.5088518E-02  0.1294651E-04  0.6171875E+01  0.7675205E-03  0.2945439E-06  0.6171875E+01  0.1278576E-02  0.8173789E-06
  0.6250000E+01  0.9014099E-01  0.4062699E-02  0.6250000E+01  0.8086446E-02  0.3269530E-04  0.6250000E+01  0.6492390E-02  0.2107556E-04  0.6250000E+01  0.5066142E-02  0.1283290E-04  0.6250000E+01  0.1342532E-02  0.9011954E-06  0.6250000E+01  0.4542380E-03  0.1031661E-06  0.6250000E+01  0.5339218E-03  0.1425363E-06
  0.6328125E+01  0.5872301E-01  0.1724196E-02  0.6328125E+01  0.4602527E-02  0.1059163E-04  0.6328125E+01  0.1859176E-01  0.1728267E-03  0.6328125E+01  0.6851647E-02  0.2347253E-04  0.6328125E+01  0.2996785E-02  0.4490359E-05  0.6328125E+01  0.6450214E-04  0.2080263E-08  0.6328125E+01  0.7695185E-03  0.2960794E-06
  0.6406250E+01  0.4961501E-01  0.1230825E-02  0.6406250E+01  0.2083706E-02  0.2170915E-05  0.6406250E+01  0.1103481E-01  0.6088351E-04  0.6406250E+01  0.5457698E-02  0.1489323E-04  0.6406250E+01  0.3723018E-02  0.6930433E-05  0.6406250E+01  0.5289610E-03  0.1398999E-06  0.6406250E+01  0.2126385E-03  0.2260757E-07
  0.6484375E+01  0.8020619E-01  0.3216517E-02  0.6484375E+01  0.6223311E-02  0.1936480E-04  0.6484375E+01  0.1551329E-01  0.1203312E-03  0.6484375E+01  0.3300281E-02  0.5445929E-05  0.6484375E+01  0.1558078E-02  0.1213803E-05  0.6484375E+01  0.5740486E-03  0.1647659E-06  0.6484375E+01  0.1492348E-02  0.1113551E-05
  0.6562500E+01  0.6393073E-01  0.2043569E-02  0.6562500E+01  0.2553811E-02  0.3260976E-05  0.6562500E+01  0.1539912E-01  0.1185664E-03  0.6562500E+01  0.1896361E-02  0.1798093E-05  0.6562500E+01  0.2212573E-02  0.2447739E-05  0.6562500E+01  0.8246338E-04  0.3400104E-08  0.6562500E+01  0.1051893E-02  0.5532393E-06
  0.6640625E+01  0.4941643E-01  0.1220992E-02  0.6640625E+01  0.6635789E-02  0.2201685E-04  0.6640625E+01  0.8444764E-02  0.3565702E-04  0.6640625E+01  0.4041669E-02  0.8167543E-05  0.6640625E+01  0.1832735E-02  0.1679460E-05  0.6640625E+01  0.1826373E-03  0.1667819E-07  0.6640625E+01  0.1034438E-02  0.5350308E-06
  0.6718750E+01  0.4358300E-01  0.9497388E-03  0.6718750E+01  0.8386097E-02  0.3516331E-04  0.6718750E+01  0.1079625E-01  0.5827952E-04  0.6718750E+01  0.1393494E-01  0.9709132E-04  0.6718750E+01  0.5733827E-03  0.1643838E-06  0.6718750E+01  0.1498950E-02  0.1123426E-05  0.6718750E+01  0.9965913E-03  0.4965971E-06
  0.6796875E+01  0.4881805E-01  0.1191601E-02  0.6796875E+01  0.5609126E-02  0.1573115E-04  0.6796875E+01  0.9982346E-02  0.4982361E-04  0.6796875E+01  0.5902977E-02  0.1742257E-04  0.6796875E+01  0.1068728E-02  0.5710897E-06  0.6796875E+01  0.5312196E-03  0.1410972E-06  0.6796875E+01  0.4599389E-03  0.1057719E-06
  0.6875000E+01  0.4393152E-01  0.9649894E-03  0.6875000E+01  0.9095243E-02  0.4136173E-04  0.6875000E+01  0.2177309E-01  0.2370338E-03  0.6875000E+01  0.9133070E-02  0.4170648E-04  0.6875000E+01  0.3688843E-02  0.6803783E-05  0.6875000E+01  0.2639448E-03  0.3483342E-07  0.6875000E+01  0.1506249E-02  0.1134393E-05
  0.6953125E+01  0.7805974E-01  0.3046661E-02  0.6953125E+01  0.1058173E-01  0.5598652E-04  0.6953125E+01  0.1973955E-01  0.1948250E-03  0.6953125E+01  0.1328135E-01  0.8819713E-04  0.6953125E+01  0.1035038E-02  0.5356517E-06  0.6953125E+01  0.1184926E-02  0.7020250E-06  0.6953125E+01  0.1832251E-02  0.1678571E-05
  0.7031250E+01  0.8446332E-01  0.3567026E-02  0.7031250E+01  0.1111747E-01  0.6179904E-04  0.7031250E+01  0.9573085E-02  0.4582198E-04  0.7031250E+01  0.1147410E-01  0.6582743E-04  0.7031250E+01  0.1010911E-02  0.5109706E-06  0.7031250E+01  0.9517685E-03  0.4529316E-06  0.7031250E+01  0.4522356E-03  0.1022585E-06
  0.7109375E+01  0.8664491E-01  0.3753670E-02  0.7109375E+01  0.8746693E-02  0.3825232E-04  0.7109375E+01  0.1577623E-01  0.1244447E-03  0.7109375E+01  0.3007734E-02  0.4523232E-05  0.7109375E+01  0.1132723E-02  0.6415308E-06  0.7109375E+01  0.5912546E-03  0.1747910E-06  0.7109375E+01  0.4271914E-03  0.9124626E-07
  0.7187500E+01  0.7465116E-01  0.2786398E-02  0.7187500E+01  0.2214510E-02  0.2452027E-05  0.7187500E+01  0.1402617E-01  0.9836668E-04  0.7187500E+01  0.1154686E-01  0.6666494E-04  0.7187500E+01  0.9821762E-03  0.4823350E-06  0.7187500E+01  0.1238844E-02  0.7673672E-06  0.7187500E+01  0.4625723E-03  0.1069866E-06